/*--------------------------------*- C++ -*----------------------------------*\
| =========                 |                                                 |
| \\      /  F ield         | OpenFOAM: The Open Source CFD Toolbox           |
|  \\    /   O peration     | Version:  1.7.1                                 |
|   \\  /    A nd           | Web:      www.OpenFOAM.com                      |
|    \\/     M anipulation  |                                                 |
\*---------------------------------------------------------------------------*/
FoamFile
{
    version     2.0;
    format      ascii;
    class       volScalarField;
    location    "0.00299998";
    object      p;
}
// * * * * * * * * * * * * * * * * * * * * * * * * * * * * * * * * * * * * * //

dimensions      [1 -1 -2 0 0 0 0];

internalField   nonuniform List<scalar> 
160
(
167874
159807
148149
136947
127087
118381
110578
103525
97130.9
91331.5
86069.9
81294.2
76957.1
73016.5
69434.5
66178
63217.2
60526
58081.1
55861.5
53848.1
52023.3
50371.2
48879.3
47541.6
46360.7
45339.1
44454.3
43629.8
42848.8
42184.1
41684.1
41352.3
41109.4
40695.7
39719.6
38136.4
34852.1
28213.4
20853.6
170610
161898
149483
137763
127615
118760
110875
103774
97351.8
91533.8
86259.4
81473.9
77128.9
73181.3
69592.9
66330.1
63363
60665.2
58213
55985.3
53962.6
52126.7
50461.1
48952.8
47596.2
46395.5
45358
44464.3
43636.8
42856.5
42193
41694
41362.6
41117.4
40695.8
39708.7
38117.2
34845.8
28223.1
20843.2
168823
160419
148383
137000
127094
118384
110583
103530
97135.8
91336.5
86074.9
81299
76961.6
73020.7
69438.4
66181.6
63220.6
60529.3
58084.2
55864.4
53850.9
52026
50373.8
48881.8
47544.2
46363.4
45342.1
44457.3
43632.6
42851.8
42187.3
41687.6
41356.7
41114
40695.4
39708.6
38127.4
34878.3
28256.2
20841.4
170716
161811
149271
137596
127519
118705
110842
103753
97337.3
91523.5
86251.3
81467.3
77123.3
73176.3
69588.5
66326.1
63359.3
60661.7
58209.8
55982.3
53959.8
52124
50458.6
48950.4
47593.8
46393.3
45356.2
44462.9
43635.5
42855.1
42191.4
41691.9
41360.4
41116.9
40698.9
39713.1
38144.7
34921.2
28376.4
21038.9
)
;

boundaryField
{
    SYMP3
    {
        type            empty;
    }
    in
    {
        type            cyclic;
        value           nonuniform List<scalar> 
80
(
169294
160809
148710
137272
127303
118543
110710
103639
97234.1
91427.5
86160.6
81380.8
77040.2
73096.4
69511.5
66252
63288.2
60593.9
58145.4
55921.9
53903.9
52073.7
50414.9
48914.8
47567.7
46377
45347.7
44458.6
43632.7
42852
42187.8
41688
41356.4
41113.2
40697.3
39716.4
38140.6
34886.6
28294.9
20946.3
169294
160809
148710
137272
127303
118543
110710
103639
97234.1
91427.5
86160.6
81380.8
77040.2
73096.4
69511.5
66252
63288.2
60593.9
58145.4
55921.9
53903.9
52073.7
50414.9
48914.8
47567.7
46377
45347.7
44458.6
43632.7
42852
42187.8
41688
41356.4
41113.2
40697.3
39716.4
38140.6
34886.6
28294.9
20946.3
)
;
    }
    wall
    {
        type            fixedValue;
        value           uniform 100000;
    }
    slip
    {
        type            zeroGradient;
    }
}


// ************************************************************************* //
