/*--------------------------------*- C++ -*----------------------------------*\
| =========                 |                                                 |
| \\      /  F ield         | OpenFOAM: The Open Source CFD Toolbox           |
|  \\    /   O peration     | Version:  1.7.1                                 |
|   \\  /    A nd           | Web:      www.OpenFOAM.com                      |
|    \\/     M anipulation  |                                                 |
\*---------------------------------------------------------------------------*/
FoamFile
{
    version     2.0;
    format      ascii;
    class       volScalarField;
    location    "0.00299998";
    object      rho;
}
// * * * * * * * * * * * * * * * * * * * * * * * * * * * * * * * * * * * * * //

dimensions      [1 -3 0 0 0 0 0];

internalField   nonuniform List<scalar> 
160
(
1.06373
1.01603
0.944679
0.875682
0.815065
0.76174
0.714109
0.671185
0.632398
0.597343
0.565675
0.537081
0.511275
0.488005
0.467048
0.44821
0.43132
0.416231
0.402815
0.390962
0.380574
0.371565
0.363866
0.357431
0.352272
0.348467
0.346112
0.345118
0.344976
0.34563
0.347772
0.35197
0.35848
0.366875
0.375052
0.379403
0.379209
0.362753
0.309523
0.243888
1.07823
1.02715
0.951824
0.880083
0.817958
0.76386
0.715814
0.67265
0.633717
0.598569
0.566836
0.538191
0.512343
0.489037
0.468046
0.449175
0.432251
0.417126
0.403671
0.391772
0.381331
0.372257
0.364475
0.357937
0.352652
0.348712
0.346246
0.345189
0.345028
0.345689
0.347843
0.352052
0.358568
0.366946
0.375055
0.379303
0.379023
0.36268
0.309603
0.243759
1.06861
1.01912
0.945695
0.875761
0.814982
0.761705
0.714115
0.671207
0.632426
0.597374
0.565706
0.53711
0.511302
0.48803
0.467071
0.448232
0.43134
0.41625
0.402833
0.390979
0.38059
0.371582
0.363882
0.357447
0.352288
0.348485
0.346131
0.345138
0.344996
0.345652
0.347797
0.351998
0.358517
0.366917
0.375055
0.379307
0.379131
0.363024
0.309965
0.243742
1.07832
1.02631
0.950473
0.879117
0.817448
0.763594
0.715655
0.672546
0.633643
0.598513
0.56679
0.538151
0.512309
0.489006
0.468018
0.449149
0.432228
0.417104
0.40365
0.391752
0.381312
0.372239
0.364457
0.357919
0.352635
0.348696
0.346231
0.345177
0.345017
0.345678
0.34783
0.352035
0.358549
0.366943
0.375088
0.379353
0.379311
0.363472
0.311269
0.246043
)
;

boundaryField
{
    SYMP3
    {
        type            empty;
    }
    in
    {
        type            cyclic;
        value           nonuniform List<scalar> 
80
(
1.07104
1.02117
0.947578
0.8774
0.816257
0.762667
0.714882
0.671865
0.633021
0.597928
0.566232
0.537616
0.511792
0.488505
0.467533
0.44868
0.431774
0.416668
0.403233
0.391357
0.380943
0.371902
0.364161
0.357675
0.352453
0.348582
0.346172
0.345147
0.344997
0.345654
0.347801
0.352002
0.358515
0.366909
0.37507
0.379378
0.37926
0.363112
0.310396
0.244966
1.07104
1.02117
0.947578
0.8774
0.816257
0.762667
0.714882
0.671865
0.633021
0.597928
0.566232
0.537616
0.511792
0.488505
0.467533
0.44868
0.431774
0.416668
0.403233
0.391357
0.380943
0.371902
0.364161
0.357675
0.352453
0.348582
0.346172
0.345147
0.344997
0.345654
0.347801
0.352002
0.358515
0.366909
0.37507
0.379378
0.37926
0.363112
0.310396
0.244966
)
;
    }
    wall
    {
        type            fixedRho;
        value           uniform 1.20957;
    }
    slip
    {
        type            zeroGradient;
    }
}


// ************************************************************************* //
