/*--------------------------------*- C++ -*----------------------------------*\
| =========                 |                                                 |
| \\      /  F ield         | OpenFOAM: The Open Source CFD Toolbox           |
|  \\    /   O peration     | Version:  1.7.1                                 |
|   \\  /    A nd           | Web:      www.OpenFOAM.com                      |
|    \\/     M anipulation  |                                                 |
\*---------------------------------------------------------------------------*/
FoamFile
{
    version     2.0;
    format      ascii;
    class       volScalarField;
    location    "0.00299998";
    object      T;
}
// * * * * * * * * * * * * * * * * * * * * * * * * * * * * * * * * * * * * * //

dimensions      [0 0 0 1 0 0 0];

internalField   nonuniform List<scalar> 
160
(
549.762
547.915
546.305
544.79
543.166
541.374
539.419
537.308
535.043
532.622
530.037
527.281
524.344
521.217
517.888
514.344
510.572
506.558
502.285
497.737
492.894
487.736
482.24
476.381
470.13
463.457
456.33
448.713
440.571
431.867
422.548
412.559
401.843
390.342
377.988
364.692
350.335
334.688
317.53
297.861
551.21
549.073
547.086
545.293
543.492
541.597
539.58
537.432
535.144
532.709
530.116
527.356
524.419
521.291
517.962
514.419
510.648
506.633
502.359
497.809
492.962
487.798
482.293
476.424
470.162
463.479
456.343
448.721
440.576
431.87
422.55
412.561
401.845
390.343
377.987
364.689
350.33
334.695
317.558
297.869
550.344
548.341
546.582
544.949
543.249
541.414
539.437
537.316
535.047
532.624
530.039
527.283
524.347
521.22
517.891
514.348
510.576
506.562
502.29
497.741
492.898
487.74
482.244
476.384
470.134
463.461
456.333
448.716
440.574
431.869
422.55
412.561
401.844
390.341
377.983
364.683
350.324
334.689
317.558
297.864
551.5
549.228
547.089
545.231
543.42
541.539
539.538
537.404
535.126
532.698
530.11
527.352
524.416
521.289
517.96
514.417
510.646
506.631
502.358
497.807
492.96
487.796
482.292
476.423
470.162
463.479
456.344
448.722
440.577
431.87
422.551
412.561
401.845
390.341
377.982
364.68
350.317
334.688
317.573
297.874
)
;

boundaryField
{
    SYMP3
    {
        type            empty;
    }
    in
    {
        type            cyclic;
        value           nonuniform List<scalar> 
80
(
550.631
548.571
546.697
545.01
543.293
541.456
539.479
537.356
535.085
532.66
530.073
527.317
524.38
521.253
517.924
514.381
510.609
506.595
502.322
497.772
492.927
487.766
482.266
476.402
470.146
463.468
456.337
448.718
440.574
431.868
422.549
412.56
401.844
390.341
377.985
364.686
350.326
334.688
317.552
297.868
550.631
548.571
546.697
545.01
543.293
541.456
539.479
537.356
535.085
532.66
530.073
527.317
524.38
521.253
517.924
514.381
510.609
506.595
502.322
497.772
492.927
487.766
482.266
476.402
470.146
463.468
456.337
448.718
440.574
431.868
422.549
412.56
401.844
390.341
377.985
364.686
350.326
334.688
317.552
297.868
)
;
    }
    wall
    {
        type            fixedValue;
        value           uniform 288;
    }
    slip
    {
        type            zeroGradient;
    }
}


// ************************************************************************* //
