/*--------------------------------*- C++ -*----------------------------------*\
| =========                 |                                                 |
| \\      /  F ield         | OpenFOAM: The Open Source CFD Toolbox           |
|  \\    /   O peration     | Version:  1.7.1                                 |
|   \\  /    A nd           | Web:      www.OpenFOAM.com                      |
|    \\/     M anipulation  |                                                 |
\*---------------------------------------------------------------------------*/
FoamFile
{
    version     2.0;
    format      ascii;
    class       volScalarField;
    location    "0.00399998";
    object      T;
}
// * * * * * * * * * * * * * * * * * * * * * * * * * * * * * * * * * * * * * //

dimensions      [0 0 0 1 0 0 0];

internalField   nonuniform List<scalar> 
160
(
544.586
542.998
541.513
540.075
538.536
536.842
534.992
532.991
530.839
528.533
526.066
523.431
520.618
517.618
514.417
511.005
507.366
503.488
499.352
494.943
490.241
485.225
479.872
474.158
468.053
461.528
454.548
447.08
439.085
430.526
421.352
411.509
400.94
389.579
377.35
364.166
349.878
334.314
317.235
297.806
545.902
544.115
542.294
540.591
538.875
537.077
535.163
533.121
530.943
528.621
526.145
523.504
520.688
517.686
514.485
511.072
507.434
503.554
499.418
495.006
490.301
485.279
479.919
474.195
468.08
461.545
454.559
447.087
439.089
430.528
421.353
411.51
400.939
389.576
377.345
364.161
349.876
334.327
317.286
297.812
545.068
543.376
541.765
540.226
538.619
536.885
535.014
533.002
530.844
528.536
526.068
523.433
520.621
517.62
514.42
511.008
507.37
503.491
499.356
494.947
490.244
485.228
479.876
474.161
468.056
461.531
454.551
447.083
439.087
430.527
421.352
411.509
400.937
389.572
377.338
364.152
349.87
334.329
317.295
297.806
546.119
544.219
542.29
540.538
538.814
537.025
535.123
533.093
530.924
528.609
526.137
523.499
520.685
517.684
514.483
511.071
507.432
503.553
499.417
495.006
490.3
485.278
479.918
474.195
468.08
461.546
454.56
447.088
439.09
430.528
421.353
411.509
400.937
389.571
377.334
364.147
349.868
334.34
317.344
297.82
)
;

boundaryField
{
    SYMP3
    {
        type            empty;
    }
    in
    {
        type            cyclic;
        value           nonuniform List<scalar> 
80
(
545.352
543.609
541.902
540.307
538.675
536.933
535.058
533.042
530.882
528.571
526.102
523.465
520.652
517.651
514.45
511.038
507.399
503.52
499.385
494.974
490.27
485.252
479.895
474.176
468.067
461.537
454.554
447.084
439.088
430.527
421.352
411.509
400.939
389.575
377.342
364.157
349.873
334.327
317.289
297.813
545.352
543.609
541.902
540.307
538.675
536.933
535.058
533.042
530.882
528.571
526.102
523.465
520.652
517.651
514.45
511.038
507.399
503.52
499.385
494.974
490.27
485.252
479.895
474.176
468.067
461.537
454.554
447.084
439.088
430.527
421.352
411.509
400.939
389.575
377.342
364.157
349.873
334.327
317.289
297.813
)
;
    }
    wall
    {
        type            fixedValue;
        value           uniform 288;
    }
    slip
    {
        type            zeroGradient;
    }
}


// ************************************************************************* //
