    1C
    1UUSER                                                              
    1UDATE              23.july.2020                                    
    1UTIME              21:56:19                                        
    1UHOST                                                              
    1UPGM               CalculiX                                        
    1UVERSION           Version 2.17                             
    1UCOMPILETIME       Thu Jul 23 21:29:36 CEST 2020                    
    1UDIR                                                               
    1UDBN                                                               
    1UMAT    1EL                                                        
    2C                          2031                                     1
 -1       165 4.67120E-01-5.01083E-01 6.76687E+00
 -1       166 5.10750E-01 7.29238E-01 2.93120E+00
 -1       167 4.62861E-01 9.76419E-01 8.68635E-01
 -1       168 1.00000E+00 7.24253E-01 2.95777E+00
 -1       169 1.00000E+00 3.73062E-01 1.83131E+00
 -1       170 5.22020E-01 5.20366E-01 0.00000E+00
 -1       171 0.00000E+00-7.63378E-01 4.88345E+00
 -1       172 4.57306E-01 2.65952E-01 4.79118E+00
 -1       173 5.25703E-01 0.00000E+00 0.00000E+00
 -1       174 1.00000E+00-4.56728E-01 6.67124E+00
 -1       175 0.00000E+00 3.74093E-01 1.05642E+00
 -1       176 0.00000E+00 5.36799E-01 0.00000E+00
 -1       177 1.00000E+00-2.60892E-01 2.87785E+00
 -1       178 0.00000E+00 7.26920E-01 2.94359E+00
 -1       179 0.00000E+00-2.57103E-01 2.85709E+00
 -1       180 0.00000E+00 2.27660E-01 4.91126E+00
 -1       181 1.00000E+00-2.36161E-02 8.69280E-01
 -1       182 5.12738E-01-5.08067E-01 4.00000E+00
 -1       183 1.00000E+00-7.34743E-01 4.79339E+00
 -1       184 1.00000E+00 2.83563E-01 4.73482E+00
 -1       185 0.00000E+00 9.03139E-02 3.81422E+00
 -1       186 5.12412E-01 8.74508E-01 2.00000E+00
 -1       187 1.00000E+00 7.11027E-02 3.95192E+00
 -1       188 0.00000E+00-2.75334E-02 9.38375E-01
 -1       189 0.00000E+00 9.73329E-01 9.23603E-01
 -1       190 0.00000E+00 2.49504E-01 1.94219E+00
 -1       191 5.15362E-01 1.00000E+00 0.00000E+00
 -1       192 1.00000E+00 9.77891E-01 8.41165E-01
 -1       193 5.08263E-01 4.91933E-01 4.00000E+00
 -1       194 0.00000E+00-4.61758E-01 6.68217E+00
 -1       195 1.00000E+00 5.29469E-01 0.00000E+00
 -1       196 5.00258E-01 7.26890E-01 4.67164E-01
 -1       197 7.37133E-01 4.43264E-01 9.48402E-01
 -1       198 7.15597E-01 5.99477E-01 1.86574E+00
 -1       199 2.91842E-01 4.06134E-01 2.37186E+00
 -1       200 7.45869E-01-6.60516E-02 4.28522E+00
 -1       201 2.82365E-01 6.57557E-01 9.75254E-01
 -1       202 4.41608E-01 3.29934E-01 1.88940E+00
 -1       203 4.91954E-01-3.23235E-01 5.25828E+00
 -1       204 7.75367E-01 2.88621E-01 3.89367E+00
 -1       205 4.71479E-01 3.93502E-01 4.02097E-01
 -1       206 2.78002E-01 2.99110E-01 3.87581E+00
 -1       207 4.17733E-01 3.48012E-01 3.06681E+00
 -1       208 2.84713E-01 4.91377E-02 4.12657E+00
 -1       209 3.12239E-01-2.82655E-01 4.88317E+00
 -1       210 0.00000E+00 4.45333E-01 2.43865E+00
 -1       211 1.00000E+00 4.70149E-01 7.21319E-01
 -1       212 5.18701E-01 7.72946E-01 0.00000E+00
 -1       213 4.79690E-01 4.00424E-01 4.34000E+00
 -1       214 2.19615E-01 9.94362E-01 4.26235E-01
 -1       215 2.80431E-01 8.11451E-01 2.45003E+00
 -1       216 5.91762E-01-3.47308E-01 3.31505E+00
 -1       217 1.00000E+00-4.73553E-01 5.29017E+00
 -1       218 1.00000E+00 5.58094E-01 1.29325E+00
 -1       219 2.65595E-01 1.00000E+00 0.00000E+00
 -1       220 1.00000E+00 3.12933E-01 3.49294E+00
 -1       221 3.20357E-01 5.91263E-02 5.40503E+00
 -1       222 7.21717E-01 6.22422E-01 3.45474E+00
 -1       223 7.62030E-01 4.31094E-01 0.00000E+00
 -1       224 5.30144E-01-1.99230E-02 7.98663E-01
 -1       225 1.00000E+00-1.82716E-01 2.41208E+00
 -1       226 0.00000E+00 3.15260E-01 4.61355E-01
 -1       227 0.00000E+00 5.28542E-01 1.44838E+00
 -1       228 0.00000E+00-6.96133E-03 4.73305E-01
 -1       229 7.53381E-01 9.94162E-01 4.33679E-01
 -1       230 0.00000E+00 7.76622E-01 0.00000E+00
 -1       231 6.79478E-01 9.34535E-01 1.44535E+00
 -1       232 1.00000E+00-3.04157E-03 3.13859E-01
 -1       233 2.59571E-01 0.00000E+00 0.00000E+00
 -1       234 0.00000E+00 2.24877E-01 2.89681E+00
 -1       235 1.00000E+00 4.06391E-01 4.31875E+00
 -1       236 0.00000E+00 2.78652E-01 0.00000E+00
 -1       237 1.00000E+00-6.54107E-02 1.44475E+00
 -1       238 0.00000E+00 3.88107E-01 4.38350E+00
 -1       239 1.00000E+00 7.71454E-01 0.00000E+00
 -1       240 0.00000E+00 7.09538E-01 9.28668E-01
 -1       241 0.00000E+00-1.80647E-01 2.39848E+00
 -1       242 6.30502E-01-5.94030E-01 4.32025E+00
 -1       243 6.50484E-01 8.11568E-01 2.44927E+00
 -1       244 0.00000E+00 3.22184E-02 3.30826E+00
 -1       245 2.65089E-01 5.88826E-01 0.00000E+00
 -1       246 2.93430E-01 6.24167E-01 3.44684E+00
 -1       247 1.00000E+00 2.72756E-01 0.00000E+00
 -1       248 7.80615E-01 9.71127E-01 9.60859E-01
 -1       249 6.40496E-01-9.06527E-01 5.30851E+00
 -1       250 1.00000E+00-9.01237E-01 5.29347E+00
 -1       251 0.00000E+00-3.14345E-01 5.37761E+00
 -1       252 1.00000E+00 8.10646E-01 2.45522E+00
 -1       253 1.00000E+00-1.73574E-01 4.64923E+00
 -1       254 3.30337E-01-2.07399E-01 2.56866E+00
 -1       255 0.00000E+00 6.23843E-01 3.44831E+00
 -1       256 0.00000E+00-3.63145E-01 3.38887E+00
 -1       257 1.00000E+00 1.10272E-01 5.26059E+00
 -1       258 1.00000E+00 6.16990E-01 3.47919E+00
 -1       259 1.00000E+00 9.95038E-01 4.00048E-01
 -1       260 1.00000E+00 6.24175E-01 1.91578E+00
 -1       261 1.00000E+00-3.97540E-02 3.38326E+00
 -1       262 0.00000E+00-6.53049E-02 4.32722E+00
 -1       263 1.97678E-01 9.73073E-01 9.28013E-01
 -1       264 0.00000E+00 9.93938E-01 4.41876E-01
 -1       265 1.00000E+00-3.65409E-01 3.39929E+00
 -1       266 7.57656E-01 1.00000E+00 0.00000E+00
 -1       267 0.00000E+00 8.11417E-01 2.45025E+00
 -1       268 0.00000E+00-6.64216E-02 1.45585E+00
 -1       269 0.00000E+00 9.35857E-01 1.43070E+00
 -1       270 1.00000E+00 9.40913E-01 1.37327E+00
 -1       271 5.18239E-01 2.47219E-01 0.00000E+00
 -1       272 0.00000E+00 4.88826E-02 5.43346E+00
 -1       273 1.00000E+00 2.55528E-01 3.00396E+00
 -1       274 7.71784E-01 0.00000E+00 0.00000E+00
 -1       275 5.06172E-01-1.25492E-01 2.00000E+00
 -1       276 8.07678E-01 7.20284E-01 1.67570E+00
 -1       277 8.09803E-01 7.74009E-01 1.07427E+00
 -1       278 6.75965E-01 8.31134E-02 1.61161E+00
 -1       279 2.22599E-01 7.02216E-01 2.53248E-01
 -1       280 7.54738E-01 3.85109E-01 6.47422E-01
 -1       281 4.23217E-01 6.53523E-01 1.62455E+00
 -1       282 3.87817E-01 4.20013E-01 1.48337E+00
 -1       283 2.58698E-01-1.40713E-01 3.11969E+00
 -1       284 2.79749E-01 4.55519E-01 6.39159E-01
 -1       285 5.05271E-01 6.68169E-01 1.21230E+00
 -1       286 8.24564E-01 2.52081E-01 1.21949E+00
 -1       287 7.95400E-01 5.64679E-01 2.11549E+00
 -1       288 3.89367E-01-3.21941E-01 4.42867E+00
 -1       289 8.93910E-01 4.08574E-01 3.21276E+00
 -1       290 6.27862E-01 6.96951E-01 9.46680E-01
 -1       291 1.67563E-01 4.44981E-01 2.51368E-01
 -1       292 2.47425E-01 2.80554E-01 4.47079E-01
 -1       293 2.11021E-01 1.34950E-01 1.96636E+00
 -1       294 7.76196E-01 3.08305E-01 1.85409E+00
 -1       295 3.95384E-01 8.47579E-01 2.13035E-01
 -1       296 4.93096E-01 7.93338E-01 7.29367E-01
 -1       297 8.63792E-01 2.24398E-01 9.11585E-01
 -1       298 5.16266E-01 6.39709E-01 1.73541E-01
 -1       299 7.30614E-01 2.08150E-01 3.46927E-01
 -1       300 7.84397E-01-9.35124E-02 3.17208E+00
 -1       301 3.71342E-01 2.12636E-01 2.00008E-01
 -1       302 7.91371E-01 7.02143E-01 2.20050E-01
 -1       303 7.24268E-01 3.95448E-01 2.41905E+00
 -1       304 1.75259E-01 7.88223E-01 7.06645E-01
 -1       305 7.89205E-01 5.34352E-01 1.10716E+00
 -1       306 8.00015E-01 6.77420E-01 7.31811E-01
 -1       307 4.90352E-01 3.70148E-01 1.03050E+00
 -1       308 4.85862E-01 1.52921E-01 6.53303E-01
 -1       309 5.90837E-01 5.95353E-01 2.18715E+00
 -1       310 7.20766E-01 3.11130E-02 2.64560E+00
 -1       311 3.66763E-01 7.55150E-02 2.63146E+00
 -1       312 6.15018E-01 3.89106E-01 1.78239E-01
 -1       313 1.62043E-01 7.36832E-01 1.24916E+00
 -1       314 2.61598E-01 5.92838E-01 2.02909E+00
 -1       315 2.84535E-01 1.25227E-01 1.61867E+00
 -1       316 1.90312E-01 3.67629E-01 3.47388E+00
 -1       317 2.56556E-01-1.51618E-01 2.19822E+00
 -1       318 0.00000E+00 2.16079E-01 1.41596E+00
 -1       319 8.00004E-01-9.76406E-04 1.79118E-01
 -1       320 2.58904E-01 9.98502E-01 2.21133E-01
 -1       321 2.61169E-01 7.83597E-01 0.00000E+00
 -1       322 2.81713E-01 9.58955E-01 1.14505E+00
 -1       323 1.00000E+00-1.17626E-02 6.14358E-01
 -1       324 0.00000E+00 4.79779E-01 6.93588E-01
 -1       325 1.00000E+00 2.11548E-01 6.03754E-01
 -1       326 1.00000E+00 5.89641E-01 2.16353E+00
 -1       327 0.00000E+00 5.63119E-01 1.97120E+00
 -1       328 6.25594E-01 9.08028E-01 1.71261E+00
 -1       329 0.00000E+00 4.27197E-01 1.69367E+00
 -1       330 3.85932E-01-9.03888E-02 1.69783E+00
 -1       331 4.67130E-01 9.92442E-01 4.93028E-01
 -1       332 8.78495E-01 9.58257E-01 1.15473E+00
 -1       333 1.00000E+00 1.94956E-01 2.39790E-01
 -1       334 0.00000E+00 7.97417E-01 1.18843E+00
 -1       335 7.93133E-01 7.71935E-01 2.69249E+00
 -1       336 2.61614E-01 2.69047E-01 0.00000E+00
 -1       337 1.00000E+00-9.26208E-02 1.71862E+00
 -1       338 0.00000E+00 5.29281E-01 2.28798E-01
 -1       339 2.53846E-01-4.32909E-01 3.69606E+00
 -1       340 0.00000E+00 9.98626E-01 2.11933E-01
 -1       341 7.36655E-01-2.07930E-01 2.57192E+00
 -1       342 1.95392E-01 9.85835E-01 6.73884E-01
 -1       343 0.00000E+00 1.79602E-01 2.27123E-01
 -1       344 1.00000E+00-2.05232E-01 3.67335E+00
 -1       345 1.73179E-01-1.92004E-03 2.49977E-01
 -1       346 0.00000E+00 7.76455E-02 1.70598E+00
 -1       347 1.00000E+00 9.88015E-01 6.20112E-01
 -1       348 7.87127E-01-2.01745E-02 8.03669E-01
 -1       349 7.60253E-01-4.29751E-01 3.68273E+00
 -1       350 7.49265E-01-1.58889E-01 2.25013E+00
 -1       351 8.56589E-01 9.98760E-01 2.01478E-01
 -1       352 1.00000E+00 1.30946E-01 1.64284E+00
 -1       353 2.92129E-01-1.10986E-02 5.96850E-01
 -1       354 0.00000E+00 4.02796E-01 3.16108E+00
 -1       355 7.37772E-01 9.85174E-01 6.89360E-01
 -1       356 4.69717E-01-2.71885E-01 2.93721E+00
 -1       357 1.00000E+00 7.71937E-01 1.63659E+00
 -1       358 0.00000E+00-1.62140E-03 2.29957E-01
 -1       359 1.00000E+00 7.62030E-01 1.08128E+00
 -1       360 0.00000E+00 1.53215E-01 7.05799E-01
 -1       361 0.00000E+00 9.85057E-01 6.92056E-01
 -1       362 1.00000E+00-4.10036E-02 1.14449E+00
 -1       363 0.00000E+00 4.05423E-02 2.63482E+00
 -1       364 0.00000E+00 1.24639E-01 2.41886E+00
 -1       365 1.00000E+00 2.00098E-01 8.45337E-01
 -1       366 6.09017E-01 9.98564E-01 2.16564E-01
 -1       367 7.31283E-01 2.22785E-01 0.00000E+00
 -1       368 1.00000E+00 6.69335E-02 2.61956E+00
 -1       369 3.37710E-01-3.74822E-02 1.09437E+00
 -1       370 1.00000E+00 7.43009E-01 7.55996E-01
 -1       371 1.00000E+00 9.62561E-01 1.09373E+00
 -1       372 1.00000E+00 1.92001E-01 2.19970E+00
 -1       373 0.00000E+00 9.08967E-01 1.70386E+00
 -1       374 1.00000E+00 8.23743E-01 2.50983E-01
 -1       375 0.00000E+00 9.56860E-01 1.17384E+00
 -1       376 1.00000E+00 9.11511E-01 1.67991E+00
 -1       377 1.00000E+00 4.31044E-01 1.60677E+00
 -1       378 1.00000E+00 4.94747E-01 9.56790E-01
 -1       379 7.23340E-01-7.14632E-03 4.79513E-01
 -1       380 7.92163E-01 8.45249E-01 2.22075E+00
 -1       381 6.12744E-01 9.60914E-01 1.11747E+00
 -1       382 1.00000E+00 9.98783E-01 1.99579E-01
 -1       383 7.61005E-01 7.65603E-01 0.00000E+00
 -1       384 1.00000E+00 4.78741E-01 3.22100E+00
 -1       385 1.00000E+00 4.42615E-01 2.55573E+00
 -1       386 2.74905E-01 2.95582E-01 1.20452E+00
 -1       387 7.71263E-01 4.29314E-01 2.81946E+00
 -1       388 7.51199E-01 3.48570E-01 2.08159E+00
 -1       389 5.90635E-01 2.78823E-01 7.56645E-01
 -1       390 2.69819E-01 7.35814E-01 1.49618E+00
 -1       391 3.29221E-01 1.27217E-01 8.28334E-01
 -1       392 5.01629E-01 5.81768E-01 7.23560E-01
 -1       393 6.51502E-01 4.11957E-01 1.63341E+00
 -1       394 8.35488E-01 5.37341E-01 2.37354E+00
 -1       395 6.21720E-01 1.47245E-01 2.07861E-01
 -1       396 4.56078E-01-5.17447E-01 5.74512E+00
 -1       397 2.37952E-01 5.41124E-01 4.22189E-01
 -1       398 8.48515E-01 4.17333E-01 2.01602E-01
 -1       399 8.53379E-01 6.36759E-01 4.70751E-01
 -1       400 7.11212E-01 1.20856E-01 1.09343E+00
 -1       401 4.18290E-01 1.62388E-01 4.44301E-01
 -1       402 3.81834E-01 7.25372E-02 1.35929E+00
 -1       403 3.81153E-01 4.67862E-01 2.07858E-01
 -1       404 6.63414E-01 7.04664E-01 1.44640E+00
 -1       405 2.39184E-01 7.42279E-01 1.79448E+00
 -1       406 1.14674E-01 6.75198E-01 4.68707E-01
 -1       407 6.09225E-01 3.43099E-01 1.31564E+00
 -1       408 4.18584E-01 3.15609E-02 2.29182E+00
 -1       409 6.79161E-01 4.04975E-01 4.10888E-01
 -1       410 7.66703E-01 7.46105E-02 1.95436E+00
 -1       411 2.89260E-01 7.85064E-01 5.48113E-01
 -1       412 3.31558E-01 5.39082E-01 1.29688E+00
 -1       413 7.44943E-01 5.83542E-01 3.12544E+00
 -1       414 1.00000E+00 8.63884E-01 5.74130E-01
 -1       415 4.60416E-01 9.45787E-01 1.31555E+00
 -1       416 7.34829E-01-1.04795E-01 1.82790E+00
 -1       417 1.00000E+00 6.43061E-01 1.44767E-01
 -1       418 6.94304E-01-4.03789E-02 1.13576E+00
 -1       419 2.62803E-01 9.01860E-01 1.76900E+00
 -1       420 6.91314E-01-7.51277E-02 1.54813E+00
 -1       421 4.70107E-01-1.80104E-03 2.42201E-01
 -1       422 1.00000E+00 3.94014E-01 1.96515E-01
 -1       423 0.00000E+00 9.98539E-02 1.20075E+00
 -1       424 0.00000E+00 7.50839E-01 5.75154E-01
 -1       425 0.00000E+00 5.46040E-01 4.74017E-01
 -1       426 1.00000E+00 3.79344E-02 1.39670E+00
 -1       427 1.00000E+00 1.33169E-01 1.88788E+00
 -1       428 1.00000E+00 6.44804E-01 4.95721E-01
 -1       429 3.71983E-01-6.06230E-02 1.39098E+00
 -1       430 1.00000E+00 2.08175E-01 1.08971E+00
 -1       431 2.94684E-01-2.27760E-02 8.53731E-01
 -1       432 0.00000E+00 7.71416E-01 3.49122E-01
 -1       433 4.94788E-01-1.78420E-01 2.38374E+00
 -1       434 8.08886E-01 2.48290E-01 1.48202E+00
 -1       435 9.33525E-01 4.26302E-01 5.28909E-01
 -1       436 6.70360E-01 1.27427E-01 6.44962E-01
 -1       437 8.88480E-01 8.46525E-01 3.36165E-01
 -1       438 3.81491E-01 5.09974E-01 4.56247E-01
 -1       439 6.26532E-01 5.42055E-01 2.63721E+00
 -1       440 7.06844E-01 9.41846E-02 1.33885E+00
 -1       441 8.61030E-01 6.00042E-01 8.77914E-01
 -1       442 9.07878E-01 2.83336E-01 2.49623E+00
 -1       443 2.57742E-01 5.49228E-01 3.06641E+00
 -1       444 9.17619E-01 2.99278E-01 4.04383E-01
 -1       445 7.20382E-01 9.64579E-02 2.33467E+00
 -1       446 4.89828E-01 1.36504E-01 1.17582E+00
 -1       447 8.03218E-01 7.96528E-01 5.71344E-01
 -1       448 6.36504E-01 5.57051E-01 5.49540E-01
 -1       449 9.09163E-01 5.38493E-01 3.37043E-01
 -1       450 1.00000E+00 4.07257E-01 4.96490E-01
 -1       451 1.00000E+00 2.77146E-01 1.37291E+00
 -1       452 1.77505E-01 4.18107E-01 8.62450E-01
 -1       453 8.85892E-01 0.00000E+00 0.00000E+00
 -1       454 1.00000E+00 1.36378E-01 0.00000E+00
 -1       455 1.00000E+00-7.45965E-04 1.56937E-01
 -1       456 0.00000E+00-3.94746E-04 1.14981E-01
 -1       457 0.00000E+00 1.39326E-01 0.00000E+00
 -1       458 1.29785E-01 0.00000E+00 0.00000E+00
 -1       459 1.00000E+00 9.99705E-01 9.97913E-02
 -1       460 8.78828E-01 1.00000E+00 0.00000E+00
 -1       461 1.00000E+00 8.85727E-01 0.00000E+00
 -1       462 0.00000E+00 9.99666E-01 1.05969E-01
 -1       463 0.00000E+00 8.88311E-01 0.00000E+00
 -1       464 1.32797E-01 1.00000E+00 0.00000E+00
 -1       465 5.00000E-01-2.14359E+00 8.00000E+00
 -1       466 1.00000E+00-1.62083E+00 7.01702E+00
 -1       467 1.00000E+00-1.64359E+00 8.00000E+00
 -1       468 1.00000E+00-7.85155E-01 7.34338E+00
 -1       469 5.00000E-01-1.14359E+00 8.00000E+00
 -1       470 0.00000E+00-1.64359E+00 8.00000E+00
 -1       471 0.00000E+00-1.62083E+00 7.01702E+00
 -1       472 0.00000E+00-7.87922E-01 7.34873E+00
 -1       473 1.00000E+00-1.08442E-01 1.85938E+00
 -1       474 7.53086E-01-1.25492E-01 2.00000E+00
 -1       475 1.00000E+00-1.52729E-01 2.20623E+00
 -1       476 2.53086E-01-1.25492E-01 2.00000E+00
 -1       477 0.00000E+00-9.36547E-02 1.72817E+00
 -1       478 0.00000E+00-1.51784E-01 2.19942E+00
 -1       479 1.00000E+00-4.33919E-01 3.70032E+00
 -1       480 1.00000E+00-6.16092E-01 4.39822E+00
 -1       481 7.56369E-01-5.08067E-01 4.00000E+00
 -1       482 0.00000E+00-4.32688E-01 3.69513E+00
 -1       483 2.56369E-01-5.08067E-01 4.00000E+00
 -1       484 0.00000E+00-6.29147E-01 4.44363E+00
 -1       485 1.00000E+00-1.03043E+00 5.64824E+00
 -1       486 5.00000E-01-1.16760E+00 6.00000E+00
 -1       487 0.00000E+00-9.55428E-01 5.44537E+00
 -1       488 0.00000E+00 8.92418E-01 1.85201E+00
 -1       489 0.00000E+00 8.44603E-01 2.22536E+00
 -1       490 2.56206E-01 8.74508E-01 2.00000E+00
 -1       491 0.00000E+00 5.60264E-01 3.72472E+00
 -1       492 0.00000E+00 4.41271E-01 4.19209E+00
 -1       493 2.54131E-01 4.91933E-01 4.00000E+00
 -1       494 0.00000E+00-5.68033E-02 5.71771E+00
 -1       495 0.00000E+00-3.10454E-01 6.34291E+00
 -1       496 5.00000E-01-1.67603E-01 6.00000E+00
 -1       497 1.00000E+00 8.93805E-01 1.84005E+00
 -1       498 1.00000E+00 8.44254E-01 2.22784E+00
 -1       499 7.56206E-01 8.74508E-01 2.00000E+00
 -1       500 1.00000E+00 5.56578E-01 3.74010E+00
 -1       501 1.00000E+00 4.50027E-01 4.15961E+00
 -1       502 7.54131E-01 4.91933E-01 4.00000E+00
 -1       503 1.00000E+00-2.42922E-02 5.63194E+00
 -1       504 1.00000E+00-3.08072E-01 6.33738E+00
 -1       505 1.00000E+00 6.72774E-01 3.21893E+00
 -1       506 1.00000E+00 7.69474E-01 2.70684E+00
 -1       507 6.48743E-01 0.00000E+00 0.00000E+00
 -1       508 3.92637E-01 0.00000E+00 0.00000E+00
 -1       509 0.00000E+00 4.07725E-01 0.00000E+00
 -1       510 0.00000E+00 6.56711E-01 0.00000E+00
 -1       511 1.00000E+00-3.10993E-01 3.13900E+00
 -1       512 1.00000E+00-2.20063E-01 2.64526E+00
 -1       513 0.00000E+00 7.71120E-01 2.69725E+00
 -1       514 0.00000E+00 6.77400E-01 3.19636E+00
 -1       515 0.00000E+00-3.07879E-01 3.12343E+00
 -1       516 0.00000E+00-2.17186E-01 2.62806E+00
 -1       517 0.00000E+00 1.40500E-01 5.17312E+00
 -1       518 0.00000E+00 3.10212E-01 4.64809E+00
 -1       519 1.00000E+00-3.17165E-02 1.00692E+00
 -1       520 1.00000E+00-1.71793E-02 7.41843E-01
 -1       521 1.00000E+00-8.15935E-01 5.04412E+00
 -1       522 1.00000E+00 1.99194E-01 4.99845E+00
 -1       523 1.00000E+00 3.46431E-01 4.52721E+00
 -1       524 0.00000E+00-4.48829E-02 1.19727E+00
 -1       525 0.00000E+00-1.55493E-02 7.05915E-01
 -1       526 0.00000E+00 9.65585E-01 1.04875E+00
 -1       527 0.00000E+00 9.79614E-01 8.07850E-01
 -1       528 6.36509E-01 1.00000E+00 0.00000E+00
 -1       529 3.90478E-01 1.00000E+00 0.00000E+00
 -1       530 1.00000E+00 9.70726E-01 9.67478E-01
 -1       531 1.00000E+00 9.83337E-01 7.30656E-01
 -1       532 1.00000E+00 4.01112E-01 0.00000E+00
 -1       533 1.00000E+00 6.50461E-01 0.00000E+00
 -1       534 0.00000E+00-3.82576E-03 3.51641E-01
 -1       535 1.00000E+00-6.69238E-03 4.64129E-01
 -1       536 1.00000E+00-5.25026E-02 1.29468E+00
 -1       537 1.00000E+00-7.84315E-02 1.58174E+00
 -1       538 1.00000E+00 9.97227E-01 2.99819E-01
 -1       539 1.00000E+00 9.91907E-01 5.10092E-01
 -1       540 0.00000E+00 9.89989E-01 5.66983E-01
 -1       541 0.00000E+00 9.96697E-01 3.26913E-01
 -1       542 0.00000E+00 9.46874E-01 1.30231E+00
 -1       543 0.00000E+00 9.22993E-01 1.56734E+00
 -1       544 1.00000E+00 9.26945E-01 1.52666E+00
 -1       545 1.00000E+00 9.52348E-01 1.23355E+00
 -1       546 1.00000E+00 9.59572E-02 2.76824E-01
 -1       547 1.00000E+00 9.74780E-02 1.19895E-01
 -1       548 1.00000E+00 2.33856E-01 1.19895E-01
 -1       549 9.00002E-01-1.86621E-03 2.46490E-01
 -1       550 9.00002E-01-2.35834E-04 8.95601E-02
 -1       551 7.85894E-01-2.35834E-04 8.95601E-02
 -1       552 8.85892E-01 1.36378E-01 0.00000E+00
 -1       553 8.65896E-02-4.68489E-04 1.24992E-01
 -1       554 8.65896E-02-1.76756E-03 2.39967E-01
 -1       555 0.00000E+00 8.98012E-02 1.13562E-01
 -1       556 0.00000E+00 8.89905E-02 2.28540E-01
 -1       557 2.16375E-01-4.68489E-04 1.24992E-01
 -1       558 0.00000E+00 2.29127E-01 1.13562E-01
 -1       559 2.60592E-01 1.34523E-01 0.00000E+00
 -1       560 1.30807E-01 1.34523E-01 0.00000E+00
 -1       561 1.30807E-01 2.73849E-01 0.00000E+00
 -1       562 9.28295E-01 9.99699E-01 1.00741E-01
 -1       563 9.28295E-01 9.98772E-01 2.00529E-01
 -1       564 1.00000E+00 9.11871E-01 1.25492E-01
 -1       565 1.00000E+00 9.11263E-01 2.25281E-01
 -1       566 1.00000E+00 7.97598E-01 1.25492E-01
 -1       567 8.07122E-01 9.99699E-01 1.00741E-01
 -1       568 8.78828E-01 8.85727E-01 0.00000E+00
 -1       569 0.00000E+00 8.87624E-01 1.05967E-01
 -1       570 1.29452E-01 9.99636E-01 1.10569E-01
 -1       571 1.29452E-01 9.98565E-01 2.16533E-01
 -1       572 1.30584E-01 7.80109E-01 0.00000E+00
 -1       573 1.30584E-01 8.91798E-01 0.00000E+00
 -1       574 2.63382E-01 8.91798E-01 0.00000E+00
 -1       575 2.62249E-01 9.99636E-01 1.10569E-01
 -1       576 1.00000E+00-1.30016E+00 7.33562E+00
 -1       577 1.00000E+00-8.12164E-01 6.33562E+00
 -1       578 5.00000E-01-1.64359E+00 8.00000E+00
 -1       579 5.00000E-01-1.62083E+00 7.01702E+00
 -1       580 7.33560E-01-8.09458E-01 7.39016E+00
 -1       581 7.33560E-01-4.78825E-01 6.71909E+00
 -1       582 2.33560E-01-8.09458E-01 7.39016E+00
 -1       583 0.00000E+00-8.14679E-01 6.34108E+00
 -1       584 0.00000E+00-1.30267E+00 7.34108E+00
 -1       585 2.33560E-01-4.81357E-01 6.72455E+00
 -1       586 1.00000E+00 2.02741E-02 1.80325E+00
 -1       587 1.00000E+00 3.83851E-03 1.94394E+00
 -1       588 1.00000E+00 3.32546E-02 2.09985E+00
 -1       589 1.00000E+00 1.62585E-01 2.04379E+00
 -1       590 8.67415E-01-9.86152E-02 1.77327E+00
 -1       591 8.67415E-01-1.14914E-01 1.91398E+00
 -1       592 6.20501E-01-1.14914E-01 1.91398E+00
 -1       593 1.00000E+00 4.64253E-03 2.30589E+00
 -1       594 8.74633E-01-1.70590E-01 2.33114E+00
 -1       595 8.74633E-01-1.41683E-01 2.12513E+00
 -1       596 6.27719E-01-1.41683E-01 2.12513E+00
 -1       597 0.00000E+00-2.80042E-02 2.40867E+00
 -1       598 0.00000E+00-4.26527E-04 2.20943E+00
 -1       599 0.00000E+00 6.20062E-02 1.97109E+00
 -1       600 0.00000E+00 1.87072E-01 2.18052E+00
 -1       601 0.00000E+00 5.61197E-03 1.58091E+00
 -1       602 0.00000E+00-2.39232E-02 1.85299E+00
 -1       603 0.00000E+00 1.63575E-01 1.82408E+00
 -1       604 4.46052E-01-1.07232E-01 1.84900E+00
 -1       605 1.92966E-01-1.07232E-01 1.84900E+00
 -1       606 1.92966E-01-7.79491E-02 1.57688E+00
 -1       607 3.81364E-01-1.38236E-01 2.09915E+00
 -1       608 1.28278E-01-1.38236E-01 2.09915E+00
 -1       609 1.28278E-01-1.65808E-01 2.29839E+00
 -1       610 8.80126E-01-3.96949E-01 3.54115E+00
 -1       611 8.80126E-01-4.68126E-01 3.84156E+00
 -1       612 6.36496E-01-4.68126E-01 3.84156E+00
 -1       613 1.00000E+00-2.85320E-01 3.53632E+00
 -1       614 1.00000E+00-3.56649E-01 3.83667E+00
 -1       615 1.00000E+00-2.18482E-01 3.97596E+00
 -1       616 1.00000E+00-6.70645E-02 3.81263E+00
 -1       617 1.00000E+00-4.54158E-01 4.72131E+00
 -1       618 1.00000E+00-3.40820E-01 4.32462E+00
 -1       619 1.00000E+00-5.12355E-02 4.30057E+00
 -1       620 5.71620E-01-5.50175E-01 4.16036E+00
 -1       621 8.15251E-01-5.50175E-01 4.16036E+00
 -1       622 8.15251E-01-6.62509E-01 4.55738E+00
 -1       623 1.26923E-01-3.97287E-01 3.54264E+00
 -1       624 1.26923E-01-4.69770E-01 3.84821E+00
 -1       625 3.83292E-01-4.69770E-01 3.84821E+00
 -1       626 0.00000E+00-4.14342E-01 4.60533E+00
 -1       627 0.00000E+00-2.86686E-01 4.16361E+00
 -1       628 0.00000E+00-2.08877E-01 3.90711E+00
 -1       629 0.00000E+00 1.25045E-02 4.07072E+00
 -1       630 0.00000E+00-1.36416E-01 3.60155E+00
 -1       631 3.15251E-01-5.50175E-01 4.16036E+00
 -1       632 3.15251E-01-6.76048E-01 4.60265E+00
 -1       633 8.20248E-01-1.03324E+00 5.65570E+00
 -1       634 8.20248E-01-9.03880E-01 5.30099E+00
 -1       635 1.00000E+00-8.20576E-01 5.64508E+00
 -1       636 1.00000E+00-6.87395E-01 5.29182E+00
 -1       637 3.20248E-01-1.03324E+00 5.65570E+00
 -1       638 1.00000E+00-6.67602E-01 6.00000E+00
 -1       639 1.00000E+00-3.20578E-01 5.64508E+00
 -1       640 0.00000E+00-5.38862E-01 5.13053E+00
 -1       641 0.00000E+00-7.40973E-01 5.68880E+00
 -1       642 0.00000E+00-6.67602E-01 6.00000E+00
 -1       643 0.00000E+00-2.40974E-01 5.68880E+00
 -1       644 3.20248E-01-8.33471E-01 5.09648E+00
 -1       645 1.31401E-01 9.05446E-01 1.73643E+00
 -1       646 1.31401E-01 8.88598E-01 1.88455E+00
 -1       647 3.87607E-01 8.88598E-01 1.88455E+00
 -1       648 0.00000E+00 7.18813E-01 1.98560E+00
 -1       649 0.00000E+00 7.36043E-01 1.83753E+00
 -1       650 0.00000E+00 6.87268E-01 2.21072E+00
 -1       651 1.40215E-01 8.44619E-01 2.22524E+00
 -1       652 1.40215E-01 8.11434E-01 2.45014E+00
 -1       653 3.96421E-01 8.44619E-01 2.22524E+00
 -1       654 0.00000E+00 2.91123E-01 3.90711E+00
 -1       655 0.00000E+00 3.57078E-01 3.63126E+00
 -1       656 1.46715E-01 5.60439E-01 3.72399E+00
 -1       657 1.46715E-01 6.24005E-01 3.44758E+00
 -1       658 4.00847E-01 5.60439E-01 3.72399E+00
 -1       659 0.00000E+00 2.39211E-01 4.09886E+00
 -1       660 2.39845E-01 4.47163E-01 4.17026E+00
 -1       661 2.39845E-01 3.94282E-01 4.36175E+00
 -1       662 4.93977E-01 4.47163E-01 4.17026E+00
 -1       663 1.60178E-01-5.14165E-02 5.70359E+00
 -1       664 1.60178E-01 5.40110E-02 5.41925E+00
 -1       665 0.00000E+00-1.32731E-01 5.40553E+00
 -1       666 6.60178E-01-5.14165E-02 5.70359E+00
 -1       667 2.33560E-01-3.29016E-01 6.38576E+00
 -1       668 7.33560E-01-3.29016E-01 6.38576E+00
 -1       669 8.96081E-01 8.28392E-01 2.33805E+00
 -1       670 8.96081E-01 8.60274E-01 2.11043E+00
 -1       671 6.52287E-01 8.60274E-01 2.11043E+00
 -1       672 8.12797E-01 8.91909E-01 1.85638E+00
 -1       673 8.12797E-01 9.09778E-01 1.69626E+00
 -1       674 1.00000E+00 7.49341E-01 1.95789E+00
 -1       675 1.00000E+00 7.67843E-01 1.79785E+00
 -1       676 5.69003E-01 8.91909E-01 1.85638E+00
 -1       677 1.00000E+00 6.06908E-01 2.03966E+00
 -1       678 1.00000E+00 7.32074E-01 2.08177E+00
 -1       679 1.00000E+00 7.00144E-01 2.30937E+00
 -1       680 1.00000E+00 4.02433E-01 3.74647E+00
 -1       681 1.00000E+00 4.64961E-01 3.48607E+00
 -1       682 8.60858E-01 5.59498E-01 3.72792E+00
 -1       683 8.60858E-01 6.19711E-01 3.46697E+00
 -1       684 1.00000E+00 2.81518E-01 3.97596E+00
 -1       685 1.00000E+00 2.38747E-01 4.13533E+00
 -1       686 7.54131E-01 4.50027E-01 4.15961E+00
 -1       687 6.14990E-01 5.59498E-01 3.72792E+00
 -1       688 1.00000E+00 1.92018E-01 3.72243E+00
 -1       689 1.00000E+00-1.81641E-01 5.27538E+00
 -1       690 6.60178E-01 8.48682E-02 5.33287E+00
 -1       691 7.55375E-01 7.26751E-01 2.94449E+00
 -1       692 8.96567E-01 7.48657E-01 2.82523E+00
 -1       693 6.51941E-01 7.51042E-01 2.81193E+00
 -1       694 5.80617E-01 7.72266E-01 2.69056E+00
 -1       695 7.21809E-01 7.92227E-01 2.57096E+00
 -1       696 6.16233E-01 6.78001E-01 3.19341E+00
 -1       697 5.07573E-01 6.23295E-01 3.45079E+00
 -1       698 4.02090E-01 6.78809E-01 3.18945E+00
 -1       699 2.55375E-01 7.28080E-01 2.93739E+00
 -1       700 1.46715E-01 6.77550E-01 3.19562E+00
 -1       701 3.95590E-01 7.72201E-01 2.69093E+00
 -1       702 4.65457E-01 8.11510E-01 2.44965E+00
 -1       703 8.60858E-01 6.75293E-01 3.20666E+00
 -1       704 1.40215E-01 7.71139E-01 2.69714E+00
 -1       705 3.72287E-01 9.68286E-01 1.00688E+00
 -1       706 4.47228E-01 9.59941E-01 1.13126E+00
 -1       707 5.37803E-01 9.69151E-01 9.93084E-01
 -1       708 6.21738E-01 9.73839E-01 9.14751E-01
 -1       709 6.96680E-01 9.66212E-01 1.03918E+00
 -1       710 4.64996E-01 9.85538E-01 6.80879E-01
 -1       711 6.02451E-01 9.89111E-01 5.91205E-01
 -1       712 6.00317E-01 9.81049E-01 7.79010E-01
 -1       713 7.59194E-01 9.78729E-01 8.25139E-01
 -1       714 3.31261E-01 9.89396E-01 5.83465E-01
 -1       715 3.29127E-01 9.81425E-01 7.71274E-01
 -1       716 3.30270E-01 9.74773E-01 8.98326E-01
 -1       717 1.96535E-01 9.79961E-01 8.00974E-01
 -1       718 2.39695E-01 9.66383E-01 1.03656E+00
 -1       719 1.00000E+00 6.26630E-01 2.50548E+00
 -1       720 1.00000E+00 5.83434E-01 2.75675E+00
 -1       721 1.00000E+00 4.89890E-01 2.98087E+00
 -1       722 1.00000E+00 3.49071E-01 2.77985E+00
 -1       723 1.00000E+00 3.67134E-01 3.11248E+00
 -1       724 1.00000E+00 6.01497E-01 3.08939E+00
 -1       725 1.00000E+00 5.47866E-01 3.35010E+00
 -1       726 8.96567E-01 7.91743E-01 2.57393E+00
 -1       727 1.00000E+00 2.82531E-01 2.01550E+00
 -1       728 1.00000E+00 2.53115E-01 1.85959E+00
 -1       729 1.00000E+00 2.52004E-01 1.73707E+00
 -1       730 1.00000E+00 1.32058E-01 1.76536E+00
 -1       731 1.00000E+00 4.98618E-01 1.87354E+00
 -1       732 1.00000E+00 5.27609E-01 1.76128E+00
 -1       733 1.00000E+00 4.02053E-01 1.71904E+00
 -1       734 1.00000E+00 2.80995E-01 1.62480E+00
 -1       735 1.00000E+00 4.81351E-01 1.99742E+00
 -1       736 1.00000E+00 3.90821E-01 2.18161E+00
 -1       737 6.42025E-01 4.75730E-01 0.00000E+00
 -1       738 7.61517E-01 5.98349E-01 0.00000E+00
 -1       739 6.41513E-01 6.42985E-01 0.00000E+00
 -1       740 5.20361E-01 6.46656E-01 0.00000E+00
 -1       741 6.39853E-01 7.69275E-01 0.00000E+00
 -1       742 5.20130E-01 3.83793E-01 0.00000E+00
 -1       743 3.89926E-01 2.58133E-01 0.00000E+00
 -1       744 3.91817E-01 3.94706E-01 0.00000E+00
 -1       745 3.93554E-01 5.54596E-01 0.00000E+00
 -1       746 2.63351E-01 4.28937E-01 0.00000E+00
 -1       747 6.40134E-01 3.39157E-01 0.00000E+00