    1C
    1UUSER                                                              
    1UDATE              23.july.2020                                    
    1UTIME              21:56:20                                        
    1UHOST                                                              
    1UPGM               CalculiX                                        
    1UVERSION           Version 2.17                             
    1UCOMPILETIME       Thu Jul 23 21:29:36 CEST 2020                    
    1UDIR                                                               
    1UDBN                                                               
    1UMAT    1EL                                                        
    2C                           310                                     1
 -1       165 0.00000E+00 9.75288E-01 8.89145E-01
 -1       166 5.23992E-01-6.60193E-01 4.54959E+00
 -1       167 4.38530E-01 4.45689E-01 0.00000E+00
 -1       168 5.31447E-01 0.00000E+00 0.00000E+00
 -1       169 1.00000E+00 1.46078E-01 2.65498E+00
 -1       170 1.00000E+00 3.62829E-01 8.98089E-01
 -1       171 0.00000E+00 4.48529E-01 0.00000E+00
 -1       172 0.00000E+00-2.53365E-01 2.83645E+00
 -1       173 1.00000E+00 7.22071E-01 2.96932E+00
 -1       174 1.00000E+00-2.45565E-02 8.86361E-01
 -1       175 0.00000E+00-2.78542E-02 9.43810E-01
 -1       176 1.00000E+00-2.56446E-01 2.85347E+00
 -1       177 1.00000E+00 9.77673E-01 8.45294E-01
 -1       178 0.00000E+00 7.37067E-01 2.88896E+00
 -1       179 1.00000E+00 4.39380E-01 0.00000E+00
 -1       180 4.91682E-01 1.64353E-01 9.44586E-01
 -1       181 3.52813E-01 5.16700E-01 3.83028E-01
 -1       182 5.03262E-01 1.88834E-01 2.26132E+00
 -1       183 5.04924E-01 2.00054E-01 1.65506E+00
 -1       184 7.32129E-01 4.05893E-01 4.11769E-01
 -1       185 4.93700E-01 9.35086E-01 1.43926E+00
 -1       186 5.11656E-01-3.60205E-01 3.37529E+00
 -1       187 5.46488E-01-2.63275E-02 9.17661E-01
 -1       188 1.00000E+00-6.23387E-02 1.41048E+00
 -1       189 4.98899E-01 9.94471E-01 4.22137E-01
 -1       190 1.00000E+00 4.88171E-01 1.42780E+00
 -1       191 1.00000E+00 2.20725E-01 4.14819E-01
 -1       192 5.07217E-01-1.67264E-01 2.30841E+00
 -1       193 7.25834E-01-5.88185E-03 4.35302E-01
 -1       194 1.00000E+00-5.45128E-03 4.19176E-01
 -1       195 5.06034E-01-1.25492E-01 2.00000E+00
 -1       196 0.00000E+00 3.06868E-01 1.43527E+00
 -1       197 0.00000E+00-6.63704E-02 1.45529E+00
 -1       198 1.00000E+00-1.75034E-01 3.45384E+00
 -1       199 0.00000E+00 2.25563E-01 4.34727E-01
 -1       200 0.00000E+00-6.67020E-03 4.63365E-01
 -1       201 1.00000E+00 6.81868E-01 4.03395E-01
 -1       202 5.09935E-01-6.53501E-02 1.44408E+00
 -1       203 1.00000E+00-1.34369E-03 2.09606E-01
 -1       204 1.00000E+00 2.19690E-01 0.00000E+00
 -1       205 7.65723E-01 0.00000E+00 0.00000E+00
 -1       206 0.00000E+00-1.64649E-03 2.31707E-01
 -1       207 0.00000E+00 2.24265E-01 0.00000E+00
 -1       208 2.65723E-01 0.00000E+00 0.00000E+00
 -1       209 1.00000E+00 7.19690E-01 0.00000E+00
 -1       210 1.00000E+00 9.94453E-01 4.22795E-01
 -1       211 5.00000E-01 1.00000E+00 0.00000E+00
 -1       212 0.00000E+00 7.24265E-01 0.00000E+00
 -1       213 0.00000E+00 9.93858E-01 4.44745E-01
 -1       214 5.00000E-01-2.14359E+00 8.00000E+00
 -1       215 1.00000E+00-1.62083E+00 7.01702E+00
 -1       216 1.00000E+00-1.64359E+00 8.00000E+00
 -1       217 1.00000E+00-6.20823E-01 7.01702E+00
 -1       218 5.00000E-01-1.14359E+00 8.00000E+00
 -1       219 0.00000E+00-1.64359E+00 8.00000E+00
 -1       220 0.00000E+00-1.62083E+00 7.01702E+00
 -1       221 0.00000E+00-6.20823E-01 7.01702E+00
 -1       222 7.53017E-01-1.25492E-01 2.00000E+00
 -1       223 1.00000E+00-9.12126E-02 1.70553E+00
 -1       224 1.00000E+00-1.85096E-01 2.42764E+00
 -1       225 0.00000E+00-9.36243E-02 1.72789E+00
 -1       226 2.53017E-01-1.25492E-01 2.00000E+00
 -1       227 0.00000E+00-1.83786E-01 2.41909E+00
 -1       228 1.00000E+00-3.71906E-01 3.42901E+00
 -1       229 1.00000E+00-8.04909E-01 5.01088E+00
 -1       230 5.00000E-01-5.08067E-01 4.00000E+00
 -1       231 0.00000E+00-3.70053E-01 3.42056E+00
 -1       232 0.00000E+00-8.04909E-01 5.01088E+00
 -1       233 5.00000E-01-1.16760E+00 6.00000E+00
 -1       234 0.00000E+00 8.12158E-01 2.44547E+00
 -1       235 0.00000E+00 9.34526E-01 1.44545E+00
 -1       236 5.00000E-01 8.74508E-01 2.00000E+00
 -1       237 0.00000E+00 6.24215E-01 3.44663E+00
 -1       238 0.00000E+00 1.95091E-01 5.01088E+00
 -1       239 5.00000E-01 4.91933E-01 4.00000E+00
 -1       240 5.00000E-01-1.67603E-01 6.00000E+00
 -1       241 1.00000E+00 9.36496E-01 1.42358E+00
 -1       242 1.00000E+00 8.05857E-01 2.48585E+00
 -1       243 1.00000E+00 6.15353E-01 3.48653E+00
 -1       244 1.00000E+00 1.95091E-01 5.01088E+00
 -1       245 1.00000E+00-1.32899E-02 6.52839E-01
 -1       246 1.00000E+00-4.12978E-02 1.14858E+00
 -1       247 0.00000E+00-1.54500E-02 7.03667E-01
 -1       248 0.00000E+00-4.50660E-02 1.19970E+00
 -1       249 1.00000E+00 1.10362E-01 2.07410E-01
 -1       250 1.00000E+00 1.07637E-01 4.16998E-01
 -1       251 8.62917E-01-1.45062E-03 2.17671E-01
 -1       252 8.62917E-01-5.66452E-03 4.27239E-01
 -1       253 6.28640E-01-1.45062E-03 2.17671E-01
 -1       254 1.00000E+00 3.30052E-01 2.07410E-01
 -1       255 7.65723E-01 2.19690E-01 0.00000E+00
 -1       256 2.65723E-01-1.64649E-03 2.31707E-01
 -1       257 0.00000E+00 1.12782E-01 2.17364E-01
 -1       258 0.00000E+00 1.09446E-01 4.49046E-01
 -1       259 0.00000E+00 3.37046E-01 2.17364E-01
 -1       260 2.19265E-01 2.22845E-01 0.00000E+00
 -1       261 2.19265E-01 4.47109E-01 0.00000E+00
 -1       262 4.84989E-01 2.22845E-01 0.00000E+00
 -1       263 1.00000E+00 8.29771E-01 6.24345E-01
 -1       264 1.00000E+00 8.40934E-01 2.01698E-01
 -1       265 1.00000E+00 5.60624E-01 2.01698E-01
 -1       266 7.49449E-01 9.87478E-01 6.33771E-01
 -1       267 7.49449E-01 9.98637E-01 2.11087E-01
 -1       268 2.49449E-01 9.98637E-01 2.11087E-01
 -1       269 7.19265E-01 7.22845E-01 0.00000E+00
 -1       270 7.19265E-01 4.42534E-01 0.00000E+00
 -1       271 2.19265E-01 7.22845E-01 0.00000E+00
 -1       272 2.49449E-01 9.86592E-01 6.55711E-01
 -1       273 0.00000E+00 7.11909E-01 4.44573E-01
 -1       274 5.00000E-01-1.64359E+00 8.00000E+00
 -1       275 5.00000E-01-1.62083E+00 7.01702E+00
 -1       276 1.00000E+00-1.15559E+00 7.00000E+00
 -1       277 5.00000E-01-6.20823E-01 7.01702E+00
 -1       278 1.00000E+00-6.67602E-01 6.00000E+00
 -1       279 0.00000E+00-1.15559E+00 7.00000E+00
 -1       280 0.00000E+00-6.67602E-01 6.00000E+00
 -1       281 5.07984E-01-9.30181E-02 1.72230E+00
 -1       282 7.54967E-01-9.30181E-02 1.72230E+00
 -1       283 7.54967E-01-6.38356E-02 1.42728E+00
 -1       284 7.53609E-01-1.45607E-01 2.15431E+00
 -1       285 5.06625E-01-1.45607E-01 2.15431E+00
 -1       286 7.53609E-01-2.09467E-01 2.58133E+00
 -1       287 1.00000E+00 2.12916E-01 1.41914E+00
 -1       288 1.00000E+00 1.81340E-01 1.71390E+00
 -1       289 1.00000E+00 3.74508E-01 2.00000E+00
 -1       290 1.00000E+00 6.81340E-01 1.71390E+00
 -1       291 1.00000E+00 1.02929E-02 2.32749E+00
 -1       292 1.00000E+00-5.51842E-02 2.75423E+00
 -1       293 1.00000E+00 5.10293E-01 2.32749E+00
 -1       294 0.00000E+00 9.06880E-02 1.71764E+00
 -1       295 0.00000E+00 1.20249E-01 1.44528E+00
 -1       296 2.53017E-01-9.36243E-02 1.72789E+00
 -1       297 0.00000E+00 3.74508E-01 2.00000E+00
 -1       298 0.00000E+00 5.90688E-01 1.71764E+00
 -1       299 2.53609E-01-1.45607E-01 2.15431E+00
 -1       300 2.53609E-01-2.08072E-01 2.57280E+00
 -1       301 0.00000E+00 2.41851E-01 2.86271E+00
 -1       302 0.00000E+00 3.05788E-01 2.44448E+00
 -1       303 1.00000E+00-2.15740E-01 3.15366E+00
 -1       304 1.00000E+00-3.41551E-01 3.72692E+00
 -1       305 1.00000E+00-8.06700E-03 4.00000E+00
 -1       306 1.00000E+00 1.58449E-01 3.72692E+00
 -1       307 2.55828E-01-4.31086E-01 3.68837E+00
 -1       308 7.55828E-01-4.31086E-01 3.68837E+00
 -1       309 7.55828E-01-3.06164E-01 3.11481E+00
 -1       310 7.61996E-01-8.96789E-01 5.28079E+00
 -1       311 7.61996E-01-5.81569E-01 4.27550E+00
 -1       312 2.61996E-01-5.81569E-01 4.27550E+00
 -1       313 1.00000E+00-3.37835E-01 5.00000E+00
 -1       314 2.55828E-01-3.04479E-01 3.10633E+00
 -1       315 0.00000E+00-8.06700E-03 4.00000E+00
 -1       316 0.00000E+00 1.19284E-01 3.41823E+00
 -1       317 2.61996E-01-8.96789E-01 5.28079E+00
 -1       318 0.00000E+00-3.37835E-01 5.00000E+00
 -1       319 0.00000E+00 6.41078E-01 1.16221E+00
 -1       320 7.46850E-01 9.07242E-01 1.71989E+00
 -1       321 2.46850E-01 9.07242E-01 1.71989E+00
 -1       322 2.46850E-01 9.57555E-01 1.16437E+00
 -1       323 5.00000E-01 8.12158E-01 2.44547E+00
 -1       324 5.00000E-01 6.15353E-01 3.48653E+00
 -1       325 5.00000E-01 7.29621E-01 2.92915E+00
 -1       326 5.00000E-01 1.95091E-01 5.01088E+00
 -1       327 1.00000E+00 7.32922E-01 1.13655E+00
 -1       328 7.46850E-01 9.59141E-01 1.14247E+00
 -1       329 1.00000E+00 4.34075E-01 2.81215E+00
 -1       330 1.00000E+00 2.73519E-01 3.21158E+00
 -1       331 0.00000E+00 6.00426E-01 6.61936E-01
 -1       332 0.00000E+00 4.73717E-01 9.16477E-01
 -1       333 0.00000E+00 9.88545E-02 6.89268E-01
 -1       334 0.00000E+00 1.39507E-01 1.18954E+00
 -1       335 5.00000E-01 9.76496E-01 8.67220E-01
 -1       336 3.62917E-01-6.26984E-03 4.49333E-01
 -1       337 1.00000E+00-1.44782E-02 3.05441E+00
 -1       338 1.00000E+00 2.91777E-01 6.56454E-01
 -1       339 1.00000E+00 4.51296E-01 4.09107E-01
 -1       340 1.00000E+00 5.22348E-01 6.50742E-01
 -1       341 1.00000E+00 6.70251E-01 8.71691E-01
 -1       342 1.00000E+00 1.69136E-01 8.92225E-01
 -1       343 1.00000E+00 9.80842E-02 6.50590E-01
 -1       344 1.00000E+00 4.25500E-01 1.16295E+00
 -1       345 1.00000E+00 1.50245E-01 1.15429E+00
 -1       346 5.00000E-01-2.54903E-01 2.84496E+00
 -1       347 8.62917E-01-1.36215E-02 6.60897E-01
 -1       348 7.73244E-01-2.54343E-02 9.02011E-01
 -1       349 6.36161E-01-1.42777E-02 6.76558E-01
 -1       350 7.73244E-01-4.24327E-02 1.16421E+00
 -1       351 2.73244E-01-2.70855E-02 9.30735E-01
 -1       352 5.28211E-01-4.36708E-02 1.18103E+00
 -1       353 2.54967E-01-4.46444E-02 1.19409E+00
 -1       354 2.54967E-01-6.58593E-02 1.44968E+00
 -1       355 2.73244E-01-1.48784E-02 6.90583E-01
 -1       356 1.76407E-01 7.58350E-01 1.91514E-01
 -1       357 5.00000E-01-1.15559E+00 7.00000E+00
 -1       358 7.52462E-01 3.72812E-02 1.82753E+00
 -1       359 7.51631E-01 3.16712E-02 2.13066E+00
 -1       360 2.52462E-01 3.72812E-02 1.82753E+00
 -1       361 2.51631E-01 3.16712E-02 2.13066E+00
 -1       362 7.49936E-01-2.58115E-01 3.99993E+00
 -1       363 2.49935E-01-2.58115E-01 3.99993E+00
 -1       364 5.00000E-01-6.67602E-01 6.00000E+00
 -1       365 2.52462E-01 5.37281E-01 1.82753E+00
 -1       366 2.51631E-01 5.31671E-01 2.13066E+00
 -1       367 2.55828E-01 6.58640E-02 3.68765E+00
 -1       368 2.61996E-01-8.41300E-02 4.27479E+00
 -1       369 2.49935E-01 2.41885E-01 3.99993E+00
 -1       370 2.61996E-01-4.13898E-01 5.27479E+00
 -1       371 2.49935E-01-8.78825E-02 4.99994E+00
 -1       372 7.52462E-01 5.37281E-01 1.82753E+00
 -1       373 7.51631E-01 5.31671E-01 2.13066E+00
 -1       374 7.61996E-01-8.41300E-02 4.27479E+00
 -1       375 7.49936E-01 2.41885E-01 3.99993E+00
 -1       376 7.61996E-01-4.13898E-01 5.27479E+00
 -1       377 7.49936E-01-8.78825E-02 4.99994E+00
 -1       378 7.49936E-01-9.15981E-02 3.72686E+00
 -1       379 5.05764E-01-1.84184E-01 3.68758E+00
 -1       380 2.49935E-01 3.64453E-01 3.44442E+00
 -1       381 7.49936E-01 3.56955E-01 3.48460E+00
 -1       382 7.49936E-01 6.89579E-02 3.32743E+00
 -1       383 5.11932E-01-3.34177E-01 4.27473E+00
 -1       384 1.76407E-01 7.45994E-01 6.36087E-01
 -1       385 2.45841E-01 5.69821E-01 9.16866E-01
 -1       386 7.19265E-01 5.63779E-01 2.01698E-01
 -1       387 2.19265E-01 3.35626E-01 2.17364E-01
 -1       388 4.68714E-01 7.20080E-01 2.11069E-01
 -1       389 5.85330E-01 4.25791E-01 2.05885E-01
 -1       390 3.95672E-01 4.81195E-01 1.91514E-01
 -1       391 2.65723E-01 1.12782E-01 2.17364E-01
 -1       392 7.65723E-01 1.10362E-01 2.07410E-01
 -1       393 6.31788E-01 2.02947E-01 2.05885E-01
 -1       394 4.42130E-01 2.58350E-01 1.91514E-01
 -1       395 7.53609E-01-1.05929E-02 2.48170E+00
 -1       396 7.55828E-01-1.07064E-01 3.01514E+00
 -1       397 7.51631E-01 1.67456E-01 2.45815E+00
 -1       398 5.00000E-01 4.41573E-01 2.77197E+00
 -1       399 5.00000E-01-5.36434E-02 2.74572E+00
 -1       400 8.62917E-01 1.78473E-01 6.66695E-01
 -1       401 7.46850E-01 6.48957E-01 1.16867E+00
 -1       402 8.66065E-01 3.84361E-01 6.54929E-01
 -1       403 7.45841E-01 2.63591E-01 9.21338E-01
 -1       404 1.76407E-01 4.82615E-01 1.91514E-01
 -1       405 2.51631E-01-3.22651E-02 2.54889E+00
 -1       406 7.51631E-01 4.55453E-01 2.61532E+00
 -1       407 7.45841E-01 6.98984E-02 9.15474E-01
 -1       408 2.45841E-01 6.82496E-02 9.44198E-01
 -1       409 8.66065E-01 6.91783E-01 6.28532E-01
 -1       410 7.45841E-01 5.71013E-01 8.94940E-01
 -1       411 2.55828E-01 1.88431E-01 3.13213E+00
 -1       412 2.51631E-01 4.62951E-01 2.57514E+00
 -1       413 8.66065E-01 4.22636E-01 2.05885E-01
 -1       414 5.00808E-01 4.95016E-02 1.19433E+00
 -1       415 2.45841E-01 7.88416E-02 7.03975E-01
 -1       416 2.45841E-01 1.94958E-01 6.89657E-01
 -1       417 2.45841E-01 4.89915E-02 1.19994E+00
 -1       418 2.45841E-01 2.35611E-01 1.18993E+00
 -1       419 6.08758E-01 7.92358E-02 6.89944E-01
 -1       420 7.45841E-01 3.26262E-01 1.18619E+00
 -1       421 4.95290E-01 5.79412E-01 6.83362E-01
 -1       422 7.45841E-01 5.10074E-02 1.17754E+00
 -1       423 5.19085E-01 6.90130E-02 9.31123E-01
 -1       424 4.92691E-01 5.49720E-01 1.19192E+00
 -1       425 6.11906E-01 2.85123E-01 6.78178E-01
 -1       426 4.98303E-01 1.82204E-01 1.29983E+00
 -1       427 4.22247E-01 3.40527E-01 6.63807E-01
 -1       428 1.76407E-01 3.71132E-01 4.08877E-01
 -1       429 5.39324E-01 2.55409E-01 4.09165E-01
 -1       430 4.25856E-01 7.55586E-01 4.02582E-01
 -1       431 5.42471E-01 4.61297E-01 3.97399E-01
 -1       432 5.04648E-01 3.16712E-02 2.13066E+00
 -1       433 5.05240E-01 1.07853E-02 2.28487E+00
 -1       434 5.04093E-01 1.94444E-01 1.95819E+00
 -1       435 5.07429E-01 6.73522E-02 1.54957E+00
 -1       436 2.52462E-01 6.68420E-02 1.55518E+00
 -1       437 2.52462E-01 2.53461E-01 1.54517E+00
 -1       438 5.05479E-01 3.72812E-02 1.82753E+00
 -1       439 7.52462E-01 3.44113E-01 1.54143E+00
 -1       440 7.52462E-01 6.88579E-02 1.53277E+00
 -1       441 4.99312E-01 5.67570E-01 1.54716E+00
 -1       442 8.66065E-01 5.43880E-01 4.07582E-01
 -1       443 7.28982E-01 2.00006E-01 4.23535E-01
 -1       444 8.66065E-01 3.13309E-01 4.13294E-01
 -1       445 6.15514E-01 7.00182E-01 4.16953E-01
 -1       446 2.46850E-01 6.20977E-01 1.43727E+00
 -1       447 7.46850E-01 7.11629E-01 1.43353E+00
 -1       448 7.55828E-01-2.67620E-01 3.41457E+00
 -1       449 2.73244E-01 9.96179E-02 6.76194E-01
 -1       450 7.49449E-01 8.38169E-01 4.12766E-01
 -1       451 8.62917E-01 1.07422E-01 4.25060E-01
 -1       452 3.62917E-01 1.09841E-01 4.35014E-01
 -1       453 2.54967E-01 1.20759E-01 1.43968E+00
 -1       454 1.00000E+00 4.91933E-01 4.00000E+00
 -1       455 1.00000E+00-1.67603E-01 6.00000E+00
 -1       456 4.99871E-01-8.16205E-03 3.99987E+00
 -1       457 1.00000E+00 1.00000E+00 0.00000E+00
 -1       458 0.00000E+00 4.91933E-01 4.00000E+00
 -1       459 0.00000E+00-1.67603E-01 6.00000E+00
 -1       460 0.00000E+00-1.16760E+00 6.00000E+00
 -1       461 0.00000E+00-1.14359E+00 8.00000E+00
 -1       462 1.00000E+00-1.14359E+00 8.00000E+00
 -1       463 1.00000E+00-1.16760E+00 6.00000E+00
 -1       464 0.00000E+00-2.14359E+00 8.00000E+00
 -1       465 0.00000E+00-1.25492E-01 2.00000E+00
 -1       466 0.00000E+00 1.00000E+00 0.00000E+00
 -1       467 0.00000E+00-5.08067E-01 4.00000E+00
 -1       468 1.00000E+00-5.08067E-01 4.00000E+00
 -1       469 1.00000E+00-2.14359E+00 8.00000E+00
 -1       470 1.00000E+00-1.25492E-01 2.00000E+00
 -1       471 0.00000E+00 8.74508E-01 2.00000E+00
 -1       472 0.00000E+00 0.00000E+00 0.00000E+00
 -1       473 1.00000E+00 8.74508E-01 2.00000E+00
 -1       474 1.00000E+00 0.00000E+00 0.00000E+00
 -3
    3C                           142                                     1
 -1         1    6    0    1
 -2       181       168       167       184       394       262       390       431       393       389
 -1         2    6    0    1
 -2       187       180       174       193       423       407       348       349       419       347
 -1         3    6    0    1
 -2       186       176       169       198       309       292       396       448       303       337
 -1         4    6    0    1
 -2       454       455       456       166       244       377       375       374       376       383
 -1         5    6    0    1
 -2       168       179       184       191       255       413       393       392       254       444
 -1         6    6    0    1
 -2       189       167       457       201       388       269       267       450       386       264
 -1         7    6    0    1
 -2       173       456       458       178       381       369       324       325       380       237
 -1         8    6    0    1
 -2       458       459       456       455       238       371       369       326       240       377
 -1         9    6    0    1
 -2       460       461       462       459       279       218       357       280       221       277
 -1        10    6    0    1
 -2       462       455       463       460       217       278       276       357       364       233
 -1        11    6    0    1
 -2       464       462       460       461       274       357       220       219       218       279
 -1        12    6    0    1
 -2       454       456       173       198       375       381       243       306       378       330
 -1        13    6    0    1
 -2       196       183       465       197       437       360       294       295       436       225
 -1        14    6    0    1
 -2       458       454       456       173       239       375       369       324       243       381
 -1        15    6    0    1
 -2       171       167       466       181       261       271       212       404       390       356
 -1        16    6    0    1
 -2       186       169       456       198       396       382       379       448       337       378
 -1        17    6    0    1
 -2       460       459       455       166       280       240       364       317       370       376
 -1        18    6    0    1
 -2       455       459       460       462       240       280       364       217       277       357
 -1        19    6    0    1
 -2       456       467       468       166       363       230       362       383       312       311
 -1        20    6    0    1
 -2       460       462       469       463       357       216       275       233       276       215
 -1        21    6    0    1
 -2       469       462       460       464       216       357       275       214       274       220
 -1        22    6    0    1
 -2       463       460       455       166       233       364       278       310       317       376
 -1        23    6    0    1
 -2       169       172       182       192       399       405       397       395       300       433
 -1        24    6    0    1
 -2       468       467       456       186       230       363       362       308       307       379
 -1        25    6    0    1
 -2       456       459       458       166       371       238       369       383       370       368
 -1        26    6    0    1
 -2       456       455       459       166       377       240       371       383       376       370
 -1        27    6    0    1
 -2       459       460       467       166       280       232       318       370       317       312
 -1        28    6    0    1
 -2       456       458       467       166       369       315       363       383       368       312
 -1        29    6    0    1
 -2       178       173       169       182       325       329       398       412       406       397
 -1        30    6    0    1
 -2       458       455       456       454       326       377       369       239       244       375
 -1        31    6    0    1
 -2       176       172       169       192       346       399       292       286       300       395
 -1        32    6    0    1
 -2       180       181       184       193       427       431       425       419       429       443
 -1        33    6    0    1
 -2       466       165       171       181       213       273       212       356       384       404
 -1        34    6    0    1
 -2       468       454       456       166       305       375       362       311       374       383
 -1        35    6    0    1
 -2       455       454       468       166       244       305       313       376       374       311
 -1        36    6    0    1
 -2       468       463       455       166       229       278       313       311       310       376
 -1        68    6    0    1
 -2       467       458       459       166       315       238       318       312       368       370
 -1        69    6    0    1
 -2       191       184       170       201       444       402       338       339       442       340
 -1        70    6    0    1
 -2       470       169       182       192       291       397       359       284       395       433
 -1        71    6    0    1
 -2       184       179       167       201       413       270       389       442       265       386
 -1        72    6    0    1
 -2       180       177       170       184       410       341       403       425       409       402
 -1        73    6    0    1
 -2       178       169       456       186       398       382       380       411       396       379
 -1        74    6    0    1
 -2       173       169       456       178       329       382       381       325       398       380
 -1        75    6    0    1
 -2       456       454       468       198       375       305       362       378       306       304
 -1        76    6    0    1
 -2       465       471       182       183       297       366       361       360       365       434
 -1        77    6    0    1
 -2       472       168       199       200       208       391       257       206       256       258
 -1        78    6    0    1
 -2       470       182       183       195       359       434       358       222       432       438
 -1        79    6    0    1
 -2       466       165       181       189       213       384       356       268       272       430
 -1        80    6    0    1
 -2       180       181       193       199       427       429       419       416       428       452
 -1        81    6    0    1
 -2       169       473       470       182       293       289       291       397       373       359
 -1        82    6    0    1
 -2       172       458       467       186       316       315       231       314       367       307
 -1        83    6    0    1
 -2       178       172       465       182       301       227       302       412       405       361
 -1        84    6    0    1
 -2       182       172       465       192       405       227       361       433       300       299
 -1        85    6    0    1
 -2       185       183       471       196       441       365       321       446       437       298
 -1        86    6    0    1
 -2       170       177       185       190       341       328       401       344       327       447
 -1        87    6    0    1
 -2       167       168       181       199       262       394       390       387       391       428
 -1        88    6    0    1
 -2       471       165       185       196       235       322       321       298       319       446
 -1        89    6    0    1
 -2       467       458       456       186       315       369       363       307       367       379
 -1        90    6    0    1
 -2       456       169       173       198       382       329       381       378       337       330
 -1        91    6    0    1
 -2       180       174       170       188       407       342       403       422       246       345
 -1        92    6    0    1
 -2       188       183       180       202       440       426       422       283       435       414
 -1        93    6    0    1
 -2       180       177       165       185       410       335       385       424       328       322
 -1        94    6    0    1
 -2       181       171       167       199       404       261       390       428       259       387
 -1        95    6    0    1
 -2       193       187       180       199       349       423       419       452       449       416
 -1        96    6    0    1
 -2       470       183       188       202       358       440       223       282       435       283
 -1        97    6    0    1
 -2       179       168       474       191       255       205       204       254       392       249
 -1        98    6    0    1
 -2       184       181       168       193       431       394       393       443       429       253
 -1        99    6    0    1
 -2       457       167       179       201       269       270       209       264       386       265
 -1       100    6    0    1
 -2       168       167       472       199       262       260       208       391       387       257
 -1       101    6    0    1
 -2       471       473       182       183       236       373       366       365       372       434
 -1       102    6    0    1
 -2       183       182       465       195       434       361       360       438       432       226
 -1       103    6    0    1
 -2       465       182       192       195       361       433       299       226       432       285
 -1       104    6    0    1
 -2       193       191       174       194       451       343       347       252       250       245
 -1       105    6    0    1
 -2       167       181       184       189       390       431       389       388       430       445
 -1       106    6    0    1
 -2       165       177       180       189       335       410       385       272       266       421
 -1       107    6    0    1
 -2       167       168       179       184       262       255       270       389       393       413
 -1       108    6    0    1
 -2       184       180       177       189       425       410       409       445       421       266
 -1       109    6    0    1
 -2       170       184       191       193       402       444       338       400       443       451
 -1       110    6    0    1
 -2       457       466       167       189       211       271       269       267       268       388
 -1       111    6    0    1
 -2       471       473       178       182       236       323       234       366       373       412
 -1       112    6    0    1
 -2       176       169       470       192       292       291       224       286       395       284
 -1       113    6    0    1
 -2       473       169       173       182       293       329       242       373       397       406
 -1       114    6    0    1
 -2       465       471       178       182       297       234       302       361       366       412
 -1       115    6    0    1
 -2       169       172       178       182       399       301       398       397       405       412
 -1       116    6    0    1
 -2       473       173       178       182       242       325       323       373       406       412
 -1       117    6    0    1
 -2       182       473       470       183       373       289       359       434       372       358
 -1       118    6    0    1
 -2       187       180       175       202       423       408       351       352       414       353
 -1       119    6    0    1
 -2       185       180       170       190       424       403       401       447       420       344
 -1       120    6    0    1
 -2       170       177       180       185       341       410       403       401       328       424
 -1       121    6    0    1
 -2       471       473       183       185       236       372       365       321       320       441
 -1       122    6    0    1
 -2       465       183       195       197       360       438       226       225       436       296
 -1       123    6    0    1
 -2       473       183       185       190       372       441       320       290       439       447
 -1       124    6    0    1
 -2       165       171       181       199       273       404       384       331       259       428
 -1       125    6    0    1
 -2       180       175       165       199       408       332       385       416       333       331
 -1       126    6    0    1
 -2       181       167       466       189       390       271       356       430       388       268
 -1       127    6    0    1
 -2       165       180       181       189       385       427       384       272       421       430
 -1       128    6    0    1
 -2       188       183       470       190       440       358       223       287       439       288
 -1       129    6    0    1
 -2       175       180       197       202       408       417       248       353       414       354
 -1       130    6    0    1
 -2       183       473       470       190       372       289       358       439       290       288
 -1       131    6    0    1
 -2       169       172       176       186       399       346       292       396       314       309
 -1       132    6    0    1
 -2       178       172       169       186       301       399       398       411       314       396
 -1       133    6    0    1
 -2       458       172       178       186       316       301       237       367       314       411
 -1       134    6    0    1