    1C
    1UUSER                                                              
    1UDATE              31.july.2022                                    
    1UTIME              18:21:53                                        
    1UHOST                                                              
    1UPGM               CalculiX                                        
    1UVERSION           Version 2.20                             
    1UCOMPILETIME       Fri Jul 29 13:52:46 CEST 2022                    
    1UDIR                                                               
    1UDBN                                                               
    1UMAT    1EL                                                        
    2C                             8                                     1
 -1         1 0.00000E+00 0.00000E+00 0.00000E+00
 -1         2 1.00000E+00 0.00000E+00 0.00000E+00
 -1         3 1.00000E+00 1.00000E+00 0.00000E+00
 -1         4 0.00000E+00 1.00000E+00 0.00000E+00
 -1         5 0.00000E+00 0.00000E+00 1.00000E+00
 -1         6 1.00000E+00 0.00000E+00 1.00000E+00
 -1         7 1.00000E+00 1.00000E+00 1.00000E+00
 -1         8 0.00000E+00 1.00000E+00 1.00000E+00
 -3
    3C                             1                                     1
 -1         1    1    0    1
 -2         1         2         3         4         5         6         7         8
 -3
    1PSTEP                         1         694           1          
  100CL  101 1.000000000           8                     1    1           1
 -4  DISP        4    1
 -5  D1          1    2    1    0
 -5  D2          1    2    2    0
 -5  D3          1    2    3    0
 -5  ALL         1    2    0    0    1ALL
 -1         1 5.00000E-01 0.00000E+00 0.00000E+00
 -1         2 5.00000E-01 0.00000E+00 0.00000E+00
 -1         3 5.00000E-01 0.00000E+00 0.00000E+00
 -1         4 5.00000E-01 0.00000E+00 0.00000E+00
 -1         5 5.00000E-01 0.00000E+00 0.00000E+00
 -1         6 5.00000E-01 0.00000E+00 0.00000E+00
 -1         7 5.00000E-01 0.00000E+00 0.00000E+00
 -1         8 5.00000E-01 0.00000E+00 0.00000E+00
 -3
    1PSTEP                         2         694           1          
  100CL  101 1.000000000           8                     1    1           1
 -4  VELO        4    1
 -5  V1          1    2    1    0
 -5  V2          1    2    2    0
 -5  V3          1    2    3    0
 -5  ALL         1    2    0    0    1ALL
 -1         1 1.00000E+00 0.00000E+00 0.00000E+00
 -1         2 1.00000E+00 0.00000E+00 0.00000E+00
 -1         3 1.00000E+00 0.00000E+00 0.00000E+00
 -1         4 1.00000E+00 0.00000E+00 0.00000E+00
 -1         5 1.00000E+00 0.00000E+00 0.00000E+00
 -1         6 1.00000E+00 0.00000E+00 0.00000E+00
 -1         7 1.00000E+00 0.00000E+00 0.00000E+00
 -1         8 1.00000E+00 0.00000E+00 0.00000E+00
 -3
    1PSTEP                         3         694           1          
  100CL  101 1.000000000           8                     1    1           1
 -4  ENER        1    1
 -5  ENER        1    1    0    0
 -1         1 2.13883E-29
 -1         2 2.07278E-29
 -1         3 3.94603E-29
 -1         4-7.12057E-31
 -1         5 9.14956E-30
 -1         6 2.65581E-30
 -1         7 2.13883E-29
 -1         8-1.29508E-29
 -3
 9999
