    1C
    1UModel: segment                                                    
    1UUSER                                                              
    1UDATE              23.july.2020                                    
    1UTIME              21:59:24                                        
    1UHOST                                                              
    1UPGM               CalculiX                                        
    1UVERSION           Version 2.17                             
    1UCOMPILETIME       Thu Jul 23 21:29:36 CEST 2020                    
    1UDIR                                                               
    1UDBN                                                               
    1UMAT    1EL                                                        
    2C                          2756                                     1
 -1      2757 1.54874E-02 1.00000E+00 0.00000E+00
 -1      2758 0.00000E+00 9.99719E-01 1.71847E-02
 -1      2759 0.00000E+00 9.84623E-01 0.00000E+00
 -1      2760 1.54878E-02 9.99719E-01 1.71850E-02
 -1      2761 4.78549E-02 1.00000E+00 0.00000E+00
 -1      2762 3.05862E-02 9.99637E-01 2.22246E-02
 -1      2763 4.72433E-02 9.99693E-01 1.87628E-02
 -1      2764 8.23675E-02 1.00000E+00 0.00000E+00
 -1      2765 6.41245E-02 9.99693E-01 1.87618E-02
 -1      2766 8.23675E-02 9.99731E-01 1.64303E-02
 -1      2767 1.00000E-01 9.83130E-01 0.00000E+00
 -1      2768 1.00000E-01 9.99731E-01 1.64303E-02
 -1      2769 1.50987E-02 9.99137E-01 3.94040E-02
 -1      2770 0.00000E+00 9.98399E-01 5.44170E-02
 -1      2771 2.87665E-02 9.97051E-01 7.52643E-02
 -1      2772 2.59011E-02 9.95362E-01 9.58650E-02
 -1      2773 0.00000E+00 9.95306E-01 9.65474E-02
 -1      2774 1.51004E-02 9.98152E-01 5.94547E-02
 -1      2775 2.34100E-02 9.89557E-01 1.43258E-01
 -1      2776 0.00000E+00 9.89658E-01 1.42577E-01
 -1      2777 2.59039E-02 9.92899E-01 1.17897E-01
 -1      2778 0.00000E+00 9.80536E-01 1.96250E-01
 -1      2779 2.34061E-02 9.85865E-01 1.67182E-01
 -1      2780 0.00000E+00 9.65843E-01 2.59116E-01
 -1      2781 5.00000E-02 9.76036E-01 2.17088E-01
 -1      2782 5.00022E-02 9.69039E-01 2.46397E-01
 -1      2783 2.34094E-02 9.80389E-01 1.96930E-01
 -1      2784 4.99988E-02 9.50405E-01 3.10633E-01
 -1      2785 5.00002E-02 9.60017E-01 2.79517E-01
 -1      2786 2.37072E-02 9.45240E-01 3.26171E-01
 -1      2787 0.00000E+00 9.47174E-01 3.20688E-01
 -1      2788 0.00000E+00 9.27783E-01 3.72813E-01
 -1      2789 2.37009E-02 9.35053E-01 3.54416E-01
 -1      2790 2.46273E-02 9.14228E-01 4.04954E-01
 -1      2791 2.37031E-02 9.25643E-01 3.78228E-01
 -1      2792 0.00000E+00 9.09649E-01 4.15284E-01
 -1      2793 0.00000E+00 8.92070E-01 4.51646E-01
 -1      2794 2.46273E-02 9.05680E-01 4.23676E-01
 -1      2795 2.48002E-02 8.94086E-01 4.47722E-01
 -1      2796 0.00000E+00 8.74560E-01 4.84651E-01
 -1      2797 1.54880E-02 8.74560E-01 4.84651E-01
 -1      2798 2.47987E-02 8.85035E-01 4.65343E-01
 -1      2799 1.54874E-02 8.66030E-01 5.00000E-01
 -1      2800 0.00000E+00 8.47275E-01 4.89172E-01
 -1      2801 4.78549E-02 8.66030E-01 5.00000E-01
 -1      2802 4.02867E-02 8.76700E-01 4.80799E-01
 -1      2803 5.71657E-02 8.76700E-01 4.80799E-01
 -1      2804 8.23675E-02 8.74072E-01 4.85528E-01
 -1      2805 8.23675E-02 8.66030E-01 5.00000E-01
 -1      2806 1.00000E-01 8.74072E-01 4.85528E-01
 -1      2807 1.00000E-01 8.49567E-01 4.90495E-01
 -1      2808 8.17570E-02 9.99344E-01 3.51905E-02
 -1      2809 1.00000E-01 9.98579E-01 5.07539E-02
 -1      2810 1.00000E-01 9.95967E-01 8.84853E-02
 -1      2811 8.17562E-02 9.98465E-01 5.30848E-02
 -1      2812 7.87665E-02 9.97289E-01 7.23607E-02
 -1      2813 7.87647E-02 9.95662E-01 9.22069E-02
 -1      2814 7.59039E-02 9.93490E-01 1.12756E-01
 -1      2815 1.00000E-01 9.91336E-01 1.31269E-01
 -1      2816 7.59026E-02 9.90677E-01 1.35710E-01
 -1      2817 1.00000E-01 9.83292E-01 1.81320E-01
 -1      2818 7.34058E-02 9.86923E-01 1.61017E-01
 -1      2819 1.00000E-01 9.71207E-01 2.37744E-01
 -1      2820 7.34037E-02 9.82048E-01 1.88159E-01
 -1      2821 1.00000E-01 9.54415E-01 2.98152E-01
 -1      2822 7.37001E-02 9.38683E-01 3.44497E-01
 -1      2823 1.00000E-01 9.33998E-01 3.57084E-01
 -1      2824 7.46273E-02 9.16755E-01 3.99126E-01
 -1      2825 1.00000E-01 9.12041E-01 4.09999E-01
 -1      2826 7.37002E-02 9.27978E-01 3.72319E-01
 -1      2827 7.47973E-02 8.93834E-01 4.48213E-01
 -1      2828 1.00000E-01 8.91360E-01 4.53029E-01
 -1      2829 7.46273E-02 9.05444E-01 4.24174E-01
 -1      2830 7.47987E-02 8.84576E-01 4.66236E-01
 -1      2831 0.00000E+00 1.06499E-01 0.00000E+00
 -1      2832 6.04201E-03 1.00000E-01 0.00000E+00
 -1      2833 0.00000E+00 9.98179E-02 5.55756E-03
 -1      2834 6.04000E-03 9.98179E-02 5.55537E-03
 -1      2835 1.84764E-02 1.00000E-01 0.00000E+00
 -1      2836 1.40169E-02 9.96222E-02 8.20073E-03
 -1      2837 3.18874E-02 1.00000E-01 0.00000E+00
 -1      2838 2.81046E-02 9.97910E-02 6.37301E-03
 -1      2839 2.03983E-02 9.96225E-02 8.19772E-03
 -1      2840 3.51178E-02 9.97910E-02 6.37264E-03
 -1      2841 4.66178E-02 1.00000E-01 0.00000E+00
 -1      2842 4.27477E-02 9.95111E-02 9.32670E-03
 -1      2843 6.27682E-02 1.00000E-01 0.00000E+00
 -1      2844 6.01410E-02 9.95492E-02 8.94118E-03
 -1      2845 5.04418E-02 9.95111E-02 9.32663E-03
 -1      2846 7.92103E-02 1.00000E-01 0.00000E+00
 -1      2847 7.76776E-02 9.95475E-02 8.95837E-03
 -1      2848 6.85636E-02 9.95487E-02 8.94595E-03
 -1      2849 8.56666E-02 9.95468E-02 8.96533E-03
 -1      2850 9.36101E-02 9.97897E-02 6.41199E-03
 -1      2851 9.36068E-02 1.00000E-01 0.00000E+00
 -1      2852 1.00000E-01 1.06696E-01 0.00000E+00
 -1      2853 1.00000E-01 9.97897E-02 6.41529E-03
 -1      2854 0.00000E+00 1.20596E-01 0.00000E+00
 -1      2855 0.00000E+00 1.37219E-01 0.00000E+00
 -1      2856 0.00000E+00 1.59893E-01 0.00000E+00
 -1      2857 0.00000E+00 1.86243E-01 0.00000E+00
 -1      2858 0.00000E+00 2.12597E-01 0.00000E+00
 -1      2859 0.00000E+00 2.44253E-01 0.00000E+00
 -1      2860 0.00000E+00 2.79445E-01 0.00000E+00
 -1      2861 0.00000E+00 3.16346E-01 0.00000E+00
 -1      2862 0.00000E+00 3.59178E-01 0.00000E+00
 -1      2863 0.00000E+00 4.10150E-01 0.00000E+00
 -1      2864 0.00000E+00 4.78626E-01 0.00000E+00
 -1      2865 0.00000E+00 5.56489E-01 0.00000E+00
 -1      2866 0.00000E+00 6.36116E-01 0.00000E+00
 -1      2867 0.00000E+00 7.16221E-01 0.00000E+00
 -1      2868 0.00000E+00 7.93555E-01 0.00000E+00
 -1      2869 0.00000E+00 8.57381E-01 0.00000E+00
 -1      2870 0.00000E+00 9.05132E-01 0.00000E+00
 -1      2871 0.00000E+00 9.48960E-01 0.00000E+00
 -1      2872 1.00000E-01 1.20884E-01 0.00000E+00
 -1      2873 1.00000E-01 1.37967E-01 0.00000E+00
 -1      2874 1.00000E-01 1.58818E-01 0.00000E+00
 -1      2875 1.00000E-01 1.79045E-01 0.00000E+00
 -1      2876 1.00000E-01 2.01293E-01 0.00000E+00
 -1      2877 1.00000E-01 2.34836E-01 0.00000E+00
 -1      2878 1.00000E-01 2.73961E-01 0.00000E+00
 -1      2879 1.00000E-01 3.11764E-01 0.00000E+00
 -1      2880 1.00000E-01 3.49724E-01 0.00000E+00
 -1      2881 1.00000E-01 3.91744E-01 0.00000E+00
 -1      2882 1.00000E-01 4.42575E-01 0.00000E+00
 -1      2883 1.00000E-01 5.04062E-01 0.00000E+00
 -1      2884 1.00000E-01 5.76783E-01 0.00000E+00
 -1      2885 1.00000E-01 6.56382E-01 0.00000E+00
 -1      2886 1.00000E-01 7.35229E-01 0.00000E+00
 -1      2887 1.00000E-01 8.05081E-01 0.00000E+00
 -1      2888 1.00000E-01 8.62138E-01 0.00000E+00
 -1      2889 1.00000E-01 9.08397E-01 0.00000E+00
 -1      2890 1.00000E-01 9.47701E-01 0.00000E+00
 -1      2891 0.00000E+00 8.08631E-01 4.66861E-01
 -1      2892 0.00000E+00 7.63127E-01 4.40590E-01
 -1      2893 0.00000E+00 7.03080E-01 4.05922E-01
 -1      2894 0.00000E+00 6.32694E-01 3.65285E-01
 -1      2895 0.00000E+00 5.58495E-01 3.22446E-01
 -1      2896 0.00000E+00 4.83986E-01 2.79429E-01
 -1      2897 0.00000E+00 4.15560E-01 2.39923E-01
 -1      2898 0.00000E+00 3.55869E-01 2.05461E-01
 -1      2899 0.00000E+00 3.04432E-01 1.75764E-01
 -1      2900 0.00000E+00 2.62149E-01 1.51352E-01
 -1      2901 0.00000E+00 2.26044E-01 1.30507E-01
 -1      2902 0.00000E+00 1.93678E-01 1.11821E-01
 -1      2903 0.00000E+00 1.64209E-01 9.48072E-02
 -1      2904 0.00000E+00 1.40523E-01 8.11321E-02
 -1      2905 0.00000E+00 1.22630E-01 7.08020E-02
 -1      2906 0.00000E+00 1.05724E-01 6.10412E-02
 -1      2907 0.00000E+00 9.22273E-02 5.32489E-02
 -1      2908 6.04203E-03 8.66000E-02 5.00000E-02
 -1      2909 0.00000E+00 8.94409E-02 4.46859E-02
 -1      2910 6.03933E-03 8.94395E-02 4.46882E-02
 -1      2911 1.39642E-02 9.03211E-02 4.28259E-02
 -1      2912 1.84764E-02 8.66000E-02 5.00000E-02
 -1      2913 3.18875E-02 8.66000E-02 5.00000E-02
 -1      2914 2.77768E-02 8.92568E-02 4.50300E-02
 -1      2915 2.03461E-02 9.03198E-02 4.28287E-02
 -1      2916 4.66178E-02 8.66000E-02 5.00000E-02
 -1      2917 3.47918E-02 8.92565E-02 4.50305E-02
 -1      2918 4.13583E-02 8.99960E-02 4.35435E-02
 -1      2919 4.90611E-02 8.99948E-02 4.35460E-02
 -1      2920 6.27682E-02 8.66000E-02 5.00000E-02
 -1      2921 5.70248E-02 9.04058E-02 4.26390E-02
 -1      2922 7.34168E-02 9.04458E-02 4.25507E-02
 -1      2923 7.92102E-02 8.66000E-02 5.00000E-02
 -1      2924 6.54501E-02 9.04041E-02 4.26427E-02
 -1      2925 9.36068E-02 8.66000E-02 5.00000E-02
 -1      2926 8.14070E-02 9.04438E-02 4.25550E-02
 -1      2927 9.36034E-02 8.95340E-02 4.45118E-02
 -1      2928 8.80394E-02 9.07208E-02 4.19431E-02
 -1      2929 1.00000E-01 8.95323E-02 4.45148E-02
 -1      2930 1.00000E-01 9.27218E-02 5.35344E-02
 -1      2931 1.00000E-01 8.13369E-01 4.69596E-01
 -1      2932 1.00000E-01 7.75101E-01 4.47503E-01
 -1      2933 1.00000E-01 7.27143E-01 4.19814E-01
 -1      2934 1.00000E-01 6.63044E-01 3.82807E-01
 -1      2935 1.00000E-01 5.90157E-01 3.40726E-01
 -1      2936 1.00000E-01 5.14317E-01 2.96940E-01
 -1      2937 1.00000E-01 4.43612E-01 2.56119E-01
 -1      2938 1.00000E-01 3.82278E-01 2.20708E-01
 -1      2939 1.00000E-01 3.25457E-01 1.87903E-01
 -1      2940 1.00000E-01 2.77147E-01 1.60011E-01
 -1      2941 1.00000E-01 2.36932E-01 1.36793E-01
 -1      2942 1.00000E-01 2.00771E-01 1.15916E-01
 -1      2943 1.00000E-01 1.71014E-01 9.87359E-02
 -1      2944 1.00000E-01 1.44909E-01 8.36645E-02
 -1      2945 1.00000E-01 1.24083E-01 7.16403E-02
 -1      2946 1.00000E-01 1.07069E-01 6.18177E-02
 -1      2947 0.00000E+00 9.46417E-02 3.22765E-02
 -1      2948 7.91902E-03 9.27467E-02 3.73107E-02
 -1      2949 7.97213E-03 9.77831E-02 2.07720E-02
 -1      2950 0.00000E+00 9.82990E-02 1.81691E-02
 -1      2951 7.92387E-03 9.52507E-02 3.03007E-02
 -1      2952 7.97188E-03 9.90322E-02 1.37292E-02
 -1      2953 1.00000E-01 9.45314E-02 3.25694E-02
 -1      2954 9.44352E-02 9.31565E-02 3.62219E-02
 -1      2955 9.44348E-02 9.53826E-02 2.98661E-02
 -1      2956 9.20650E-02 9.74947E-02 2.20088E-02
 -1      2957 1.00000E-01 9.80763E-02 1.95148E-02
 -1      2958 9.20634E-02 9.87671E-02 1.53343E-02
 -1      2959 4.68557E-02 9.99059E-01 4.09800E-02
 -1      2960 4.38662E-02 9.98112E-01 6.02694E-02
 -1      2961 5.46711E-02 9.95295E-01 9.66773E-02
 -1      2962 6.05232E-02 9.98282E-01 5.68102E-02
 -1      2963 4.83281E-02 9.22096E-01 3.86805E-01
 -1      2964 4.94260E-02 8.99096E-01 4.37596E-01
 -1      2965 4.93111E-02 9.89658E-01 1.42582E-01
 -1      2966 2.36385E-02 9.88989E-02 1.45363E-02
 -1      2967 1.58894E-02 9.65558E-02 2.60054E-02
 -1      2968 2.31770E-02 9.75790E-02 2.16474E-02
 -1      2969 5.62521E-02 9.82929E-02 1.82060E-02
 -1      2970 5.31609E-02 9.62899E-02 2.68776E-02
 -1      2971 4.51925E-02 9.59957E-02 2.78440E-02
 -1      2972 3.84865E-02 9.73213E-02 2.27522E-02
 -1      2973 3.89537E-02 9.87142E-02 1.56549E-02
 -1      2974 8.64888E-02 9.66082E-02 2.58148E-02
 -1      2975 7.98551E-02 9.64224E-02 2.64424E-02
 -1      2976 7.50297E-02 9.83525E-02 1.78450E-02
 -1      2977 2.32598E-02 9.26106E-02 3.76722E-02
 -1      2978 2.31230E-02 9.49847E-02 3.11779E-02
 -1      2979 3.72428E-02 9.23226E-02 3.84086E-02
 -1      2980 3.05427E-02 9.41852E-02 3.34882E-02
 -1      2981 5.17566E-02 9.32677E-02 3.59266E-02
 -1      2982 3.71014E-02 9.47558E-02 3.19324E-02
 -1      2983 6.28069E-02 9.63988E-02 2.65205E-02
 -1      2984 6.76637E-02 9.36517E-02 3.49064E-02
 -1      2985 8.22439E-02 9.39201E-02 3.41933E-02
 -1      2986 7.07587E-02 9.64211E-02 2.64407E-02
 -1      2987 3.08682E-02 9.79958E-02 1.98635E-02
 -1      2988 0.00000E+00 9.84315E-01 1.71842E-02
 -1      2989 1.54874E-02 9.84623E-01 0.00000E+00
 -1      2990 1.69446E-02 9.64611E-01 0.00000E+00
 -1      2991 3.24320E-02 9.79987E-01 0.00000E+00
 -1      2992 4.93121E-02 9.79987E-01 0.00000E+00
 -1      2993 5.01685E-02 9.53907E-01 0.00000E+00
 -1      2994 6.55914E-02 9.73919E-01 0.00000E+00
 -1      2995 8.23675E-02 9.83130E-01 0.00000E+00
 -1      2996 8.32239E-02 9.57049E-01 0.00000E+00
 -1      2997 1.00000E-01 9.82859E-01 1.64303E-02
 -1      2998 0.00000E+00 9.78090E-01 5.73876E-02
 -1      2999 0.00000E+00 9.79223E-01 3.73473E-02
 -1      3000 0.00000E+00 9.64155E-01 2.01632E-02
 -1      3001 0.00000E+00 9.55499E-01 6.02514E-02
 -1      3002 0.00000E+00 9.74527E-01 7.73127E-02
 -1      3003 0.00000E+00 9.72378E-01 9.93784E-02
 -1      3004 0.00000E+00 9.64908E-01 1.47167E-01
 -1      3005 0.00000E+00 9.68324E-01 1.23207E-01
 -1      3006 0.00000E+00 9.47882E-01 1.04006E-01
 -1      3007 0.00000E+00 9.36715E-01 1.57382E-01
 -1      3008 0.00000E+00 9.57796E-01 1.76715E-01
 -1      3009 0.00000E+00 9.51877E-01 2.06371E-01
 -1      3010 0.00000E+00 9.35855E-01 2.70032E-01
 -1      3011 0.00000E+00 9.44751E-01 2.36887E-01
 -1      3012 0.00000E+00 9.22477E-01 2.17446E-01
 -1      3013 0.00000E+00 9.05960E-01 2.79382E-01
 -1      3014 0.00000E+00 9.26463E-01 3.01453E-01
 -1      3015 0.00000E+00 9.16826E-01 3.29883E-01
 -1      3016 0.00000E+00 9.01579E-01 3.81240E-01
 -1      3017 0.00000E+00 9.11161E-01 3.57504E-01
 -1      3018 0.00000E+00 8.90903E-01 3.38423E-01
 -1      3019 0.00000E+00 8.77965E-01 3.89189E-01
 -1      3020 0.00000E+00 8.94306E-01 4.04385E-01
 -1      3021 0.00000E+00 8.85770E-01 4.23112E-01
 -1      3022 0.00000E+00 8.76856E-01 4.40799E-01
 -1      3023 0.00000E+00 8.55770E-01 4.73804E-01
 -1      3024 0.00000E+00 8.50854E-01 4.22408E-01
 -1      3025 0.00000E+00 8.57018E-01 4.50874E-01
 -1      3026 0.00000E+00 8.29767E-01 4.55413E-01
 -1      3027 1.54874E-02 8.47275E-01 4.89172E-01
 -1      3028 5.75269E-02 8.44630E-01 4.87645E-01
 -1      3029 4.06468E-02 8.44630E-01 4.87645E-01
 -1      3030 2.51594E-02 8.25875E-01 4.76816E-01
 -1      3031 8.23675E-02 8.49567E-01 4.90495E-01
 -1      3032 7.51594E-02 8.28167E-01 4.78140E-01
 -1      3033 1.00000E-01 8.57604E-01 4.76020E-01
 -1      3034 1.00000E-01 9.67338E-01 2.27963E-02
 -1      3035 1.00000E-01 9.83937E-01 3.92266E-02
 -1      3036 1.00000E-01 9.83005E-01 5.71172E-02
 -1      3037 1.00000E-01 9.78622E-01 9.42611E-02
 -1      3038 1.00000E-01 9.80417E-01 7.44329E-02
 -1      3039 1.00000E-01 9.65828E-01 6.29084E-02
 -1      3040 1.00000E-01 9.72948E-01 1.17122E-01
 -1      3041 1.00000E-01 9.57567E-01 1.03084E-01
 -1      3042 1.00000E-01 9.69918E-01 1.40045E-01
 -1      3043 1.00000E-01 9.43701E-01 1.44209E-01
 -1      3044 1.00000E-01 9.61725E-01 1.58309E-01
 -1      3045 1.00000E-01 9.56714E-01 1.85418E-01
 -1      3046 1.00000E-01 9.38772E-01 2.46166E-01
 -1      3047 1.00000E-01 9.45924E-01 2.16892E-01
 -1      3048 1.00000E-01 9.24718E-01 1.93947E-01
 -1      3049 1.00000E-01 9.07179E-01 2.57348E-01
 -1      3050 1.00000E-01 9.32023E-01 2.78093E-01
 -1      3051 1.00000E-01 9.22315E-01 3.09175E-01
 -1      3052 1.00000E-01 9.19259E-01 3.36524E-01
 -1      3053 1.00000E-01 8.97373E-01 3.16624E-01
 -1      3054 1.00000E-01 9.08645E-01 3.64377E-01
 -1      3055 1.00000E-01 8.86972E-01 3.69554E-01
 -1      3056 1.00000E-01 9.01301E-01 3.89957E-01
 -1      3057 1.00000E-01 8.90002E-01 4.15011E-01
 -1      3058 1.00000E-01 8.80691E-01 4.36139E-01
 -1      3059 1.00000E-01 8.70317E-01 4.16262E-01
 -1      3060 1.00000E-01 8.71554E-01 4.54220E-01
 -1      3061 1.00000E-01 8.47055E-01 4.59190E-01
 -1      3062 6.04201E-03 1.06499E-01 0.00000E+00
 -1      3063 0.00000E+00 1.10367E-01 4.12804E-03
 -1      3064 0.00000E+00 1.03869E-01 4.12804E-03
 -1      3065 0.00000E+00 1.03537E-01 9.67666E-03
 -1      3066 2.11549E-02 1.06159E-01 0.00000E+00
 -1      3067 1.47626E-02 1.06159E-01 0.00000E+00
 -1      3068 8.72058E-03 1.12658E-01 0.00000E+00
 -1      3069 2.49874E-02 1.12658E-01 0.00000E+00
 -1      3070 2.87012E-02 1.06498E-01 0.00000E+00
 -1      3071 3.57199E-02 1.06498E-01 0.00000E+00
 -1      3072 4.05868E-02 1.13613E-01 0.00000E+00
 -1      3073 4.37730E-02 1.07115E-01 0.00000E+00
 -1      3074 5.14847E-02 1.07115E-01 0.00000E+00
 -1      3075 6.83888E-02 1.06185E-01 0.00000E+00
 -1      3076 5.99501E-02 1.06185E-01 0.00000E+00
 -1      3077 5.71053E-02 1.13299E-01 0.00000E+00
 -1      3078 7.32236E-02 1.11993E-01 0.00000E+00
 -1      3079 7.60418E-02 1.05809E-01 0.00000E+00
 -1      3080 8.40450E-02 1.05809E-01 0.00000E+00
 -1      3081 9.36068E-02 1.06696E-01 0.00000E+00
 -1      3082 9.04383E-02 1.12505E-01 0.00000E+00
 -1      3083 1.00000E-01 1.12673E-01 7.57499E-03
 -1      3084 1.00000E-01 1.05977E-01 7.57499E-03
 -1      3085 1.00000E-01 1.05561E-01 1.39769E-02
 -1      3086 1.48450E-02 1.18377E-01 0.00000E+00
 -1      3087 6.12444E-03 1.18716E-01 0.00000E+00
 -1      3088 0.00000E+00 1.24830E-01 6.45297E-03
 -1      3089 0.00000E+00 1.17231E-01 6.45297E-03
 -1      3090 6.12444E-03 1.26315E-01 0.00000E+00
 -1      3091 0.00000E+00 1.14601E-01 1.05810E-02
 -1      3092 0.00000E+00 1.42076E-01 8.58207E-03
 -1      3093 0.00000E+00 1.33052E-01 8.58207E-03
 -1      3094 7.37858E-03 1.42150E-01 0.00000E+00
 -1      3095 7.37858E-03 1.33125E-01 0.00000E+00
 -1      3096 0.00000E+00 1.29687E-01 1.50350E-02
 -1      3097 1.35030E-02 1.31245E-01 0.00000E+00
 -1      3098 0.00000E+00 1.47483E-01 1.89093E-02
 -1      3099 0.00000E+00 1.51650E-01 1.03272E-02
 -1      3100 0.00000E+00 1.65300E-01 1.03272E-02
 -1      3101 9.04288E-03 1.65653E-01 0.00000E+00
 -1      3102 9.04288E-03 1.52004E-01 0.00000E+00
 -1      3103 1.64215E-02 1.47910E-01 0.00000E+00
 -1      3104 1.08631E-02 1.78078E-01 0.00000E+00
 -1      3105 1.99060E-02 1.70189E-01 0.00000E+00
 -1      3106 0.00000E+00 1.78164E-01 1.22943E-02
 -1      3107 0.00000E+00 1.69920E-01 2.26216E-02
 -1      3108 1.08631E-02 1.90779E-01 0.00000E+00
 -1      3109 0.00000E+00 1.90864E-01 1.22943E-02
 -1      3110 2.32794E-02 1.95285E-01 0.00000E+00
 -1      3111 1.24162E-02 2.03450E-01 0.00000E+00
 -1      3112 1.24162E-02 2.17103E-01 0.00000E+00
 -1      3113 0.00000E+00 1.96535E-01 2.74219E-02
 -1      3114 0.00000E+00 2.04615E-01 1.51276E-02
 -1      3115 0.00000E+00 2.18268E-01 1.51276E-02
 -1      3116 0.00000E+00 2.23908E-01 3.25299E-02
 -1      3117 0.00000E+00 2.31890E-01 1.74023E-02
 -1      3118 1.35964E-02 2.52393E-01 0.00000E+00
 -1      3119 1.35964E-02 2.34390E-01 0.00000E+00
 -1      3120 0.00000E+00 2.49893E-01 1.74023E-02
 -1      3121 2.60126E-02 2.25243E-01 0.00000E+00
 -1      3122 0.00000E+00 2.85400E-01 1.97182E-02
 -1      3123 0.00000E+00 2.68211E-01 1.97182E-02
 -1      3124 2.42998E-02 2.84436E-01 0.00000E+00
 -1      3125 2.42998E-02 2.67247E-01 0.00000E+00
 -1      3126 0.00000E+00 2.55848E-01 3.71205E-02
 -1      3127 3.78961E-02 2.57384E-01 0.00000E+00
 -1      3128 0.00000E+00 2.91040E-01 4.03534E-02
 -1      3129 0.00000E+00 3.02274E-01 2.06351E-02
 -1      3130 0.00000E+00 3.21987E-01 2.06351E-02
 -1      3131 2.52235E-02 3.25177E-01 0.00000E+00
 -1      3132 2.52235E-02 3.05465E-01 0.00000E+00
 -1      3133 4.95232E-02 2.93267E-01 0.00000E+00
 -1      3134 2.64084E-02 3.67908E-01 0.00000E+00
 -1      3135 2.64084E-02 3.44789E-01 0.00000E+00
 -1      3136 0.00000E+00 3.66485E-01 2.23795E-02
 -1      3137 0.00000E+00 3.43366E-01 2.23795E-02
 -1      3138 5.16319E-02 3.33907E-01 0.00000E+00
 -1      3139 0.00000E+00 3.29294E-01 4.30146E-02
 -1      3140 0.00000E+00 4.22204E-01 2.41378E-02
 -1      3141 0.00000E+00 3.94351E-01 2.41378E-02
 -1      3142 2.66987E-02 4.19024E-01 0.00000E+00
 -1      3143 2.66987E-02 3.91171E-01 0.00000E+00
 -1      3144 0.00000E+00 3.78538E-01 4.65173E-02
 -1      3145 5.31071E-02 3.76782E-01 0.00000E+00
 -1      3146 2.80041E-02 4.92518E-01 0.00000E+00
 -1      3147 2.80041E-02 4.51895E-01 0.00000E+00
 -1      3148 0.00000E+00 4.99565E-01 2.63113E-02
 -1      3149 0.00000E+00 4.58942E-01 2.63113E-02
 -1      3150 5.47028E-02 4.32916E-01 0.00000E+00
 -1      3151 0.00000E+00 4.43143E-01 5.04491E-02
 -1      3152 0.00000E+00 5.20172E-01 5.41761E-02
 -1      3153 0.00000E+00 5.39856E-01 2.78648E-02
 -1      3154 5.00000E-02 5.28487E-01 0.00000E+00
 -1      3155 7.80041E-02 5.01755E-01 0.00000E+00
 -1      3156 5.00000E-02 5.65727E-01 0.00000E+00
 -1      3157 0.00000E+00 5.77096E-01 2.78648E-02
 -1      3158 0.00000E+00 6.03999E-01 6.02488E-02
 -1      3159 0.00000E+00 6.20633E-01 3.23840E-02
 -1      3160 5.00000E-02 6.04786E-01 0.00000E+00
 -1      3161 0.00000E+00 6.63019E-01 3.23840E-02
 -1      3162 5.00000E-02 6.47173E-01 0.00000E+00
 -1      3163 5.00000E-02 6.87712E-01 0.00000E+00
 -1      3164 0.00000E+00 6.85568E-01 6.35431E-02
 -1      3165 0.00000E+00 7.01052E-01 3.11591E-02
 -1      3166 5.00000E-02 7.25430E-01 0.00000E+00
 -1      3167 0.00000E+00 7.38770E-01 3.11591E-02
 -1      3168 0.00000E+00 7.58407E-01 6.04665E-02
 -1      3169 0.00000E+00 7.73576E-01 2.93074E-02
 -1      3170 2.58596E-02 8.23539E-01 0.00000E+00
 -1      3171 2.58596E-02 7.83922E-01 0.00000E+00
 -1      3172 0.00000E+00 8.13193E-01 2.93074E-02
 -1      3173 5.00000E-02 7.63738E-01 0.00000E+00
 -1      3174 7.58596E-02 7.93722E-01 0.00000E+00
 -1      3175 0.00000E+00 8.30989E-01 5.28664E-02
 -1      3176 0.00000E+00 8.50969E-01 2.35589E-02
 -1      3177 2.61223E-02 8.76925E-01 0.00000E+00
 -1      3178 2.61223E-02 8.52716E-01 0.00000E+00
 -1      3179 5.19819E-02 8.43083E-01 0.00000E+00
 -1      3180 0.00000E+00 8.75178E-01 2.35589E-02
 -1      3181 4.32869E-02 8.93815E-01 0.00000E+00
 -1      3182 1.71645E-02 8.98481E-01 0.00000E+00
 -1      3183 0.00000E+00 8.92647E-01 4.52357E-02
 -1      3184 0.00000E+00 8.99059E-01 2.16767E-02
 -1      3185 1.71645E-02 9.22023E-01 0.00000E+00
 -1      3186 0.00000E+00 9.22601E-01 2.16767E-02
 -1      3187 0.00000E+00 9.43868E-01 2.01632E-02
 -1      3188 0.00000E+00 9.37796E-01 4.18399E-02
 -1      3189 1.69446E-02 9.44324E-01 0.00000E+00
 -1      3190 3.41091E-02 9.37673E-01 0.00000E+00
 -1      3191 9.39304E-02 1.25920E-01 0.00000E+00
 -1      3192 9.39304E-02 1.18428E-01 0.00000E+00
 -1      3193 1.00000E-01 1.20165E-01 7.57499E-03
 -1      3194 8.43687E-02 1.17540E-01 0.00000E+00
 -1      3195 1.00000E-01 1.24464E-01 1.64744E-02
 -1      3196 1.00000E-01 1.32675E-01 8.89944E-03
 -1      3197 1.00000E-01 1.42266E-01 8.89944E-03
 -1      3198 9.00987E-02 1.42271E-01 0.00000E+00
 -1      3199 9.00987E-02 1.32679E-01 0.00000E+00
 -1      3200 8.40292E-02 1.30223E-01 0.00000E+00
 -1      3201 7.99997E-02 1.48613E-01 0.00000E+00
 -1      3202 8.99009E-02 1.53901E-01 0.00000E+00
 -1      3203 1.00000E-01 1.52040E-01 9.13609E-03
 -1      3204 1.00000E-01 1.46748E-01 1.80355E-02
 -1      3205 1.00000E-01 1.63299E-01 9.13609E-03
 -1      3206 8.99009E-02 1.65160E-01 0.00000E+00
 -1      3207 8.14975E-02 1.69737E-01 0.00000E+00
 -1      3208 9.15965E-02 1.74653E-01 0.00000E+00
 -1      3209 1.00000E-01 1.82793E-01 1.04155E-02
 -1      3210 1.00000E-01 1.73824E-01 1.04155E-02
 -1      3211 9.15965E-02 1.83622E-01 0.00000E+00
 -1      3212 1.00000E-01 1.67047E-01 1.95516E-02
 -1      3213 1.00000E-01 1.97404E-01 1.35798E-02
 -1      3214 1.00000E-01 1.92183E-01 2.39953E-02
 -1      3215 8.66583E-02 2.07253E-01 0.00000E+00
 -1      3216 8.66583E-02 1.93974E-01 0.00000E+00
 -1      3217 1.00000E-01 2.10683E-01 1.35798E-02
 -1      3218 7.82549E-02 1.89582E-01 0.00000E+00
 -1      3219 6.61430E-02 2.12019E-01 0.00000E+00
 -1      3220 7.94846E-02 2.19337E-01 0.00000E+00
 -1      3221 1.00000E-01 2.45790E-01 1.58411E-02
 -1      3222 1.00000E-01 2.25525E-01 1.58411E-02
 -1      3223 1.00000E-01 2.21636E-01 2.94209E-02
 -1      3224 7.94846E-02 2.39602E-01 0.00000E+00
 -1      3225 1.00000E-01 2.62081E-01 1.77101E-02
 -1      3226 1.00000E-01 2.52769E-01 3.35512E-02
 -1      3227 1.00000E-01 2.80940E-01 1.77101E-02
 -1      3228 7.42998E-02 2.63669E-01 0.00000E+00
 -1      3229 5.37844E-02 2.48170E-01 0.00000E+00
 -1      3230 7.42998E-02 2.82529E-01 0.00000E+00
 -1      3231 1.00000E-01 3.18910E-01 1.83308E-02
 -1      3232 1.00000E-01 2.99966E-01 1.83308E-02
 -1      3233 7.52235E-02 3.22502E-01 0.00000E+00
 -1      3234 7.52235E-02 3.03558E-01 0.00000E+00
 -1      3235 1.00000E-01 2.88086E-01 3.60410E-02
 -1      3236 7.64084E-02 3.42113E-01 0.00000E+00
 -1      3237 1.00000E-01 3.37650E-01 2.05884E-02
 -1      3238 1.00000E-01 3.25851E-01 3.89193E-02
 -1      3239 1.00000E-01 3.56665E-01 2.05884E-02
 -1      3240 7.64084E-02 3.61129E-01 0.00000E+00
 -1      3241 1.00000E-01 3.64244E-01 4.29138E-02
 -1      3242 1.00000E-01 3.76318E-01 2.23254E-02
 -1      3243 1.00000E-01 3.99323E-01 2.23254E-02
 -1      3244 7.66987E-02 4.07398E-01 0.00000E+00
 -1      3245 7.66987E-02 3.84393E-01 0.00000E+00
 -1      3246 7.80041E-02 4.40268E-01 0.00000E+00
 -1      3247 1.00000E-01 4.26858E-01 2.48433E-02
 -1      3248 1.00000E-01 4.11431E-01 4.71687E-02
 -1      3249 7.80041E-02 4.68093E-01 0.00000E+00
 -1      3250 1.00000E-01 4.54683E-01 2.48433E-02
 -1      3251 1.00000E-01 4.70064E-01 5.49914E-02
 -1      3252 1.00000E-01 4.85781E-01 3.01481E-02
 -1      3253 1.00000E-01 5.19443E-01 3.01481E-02
 -1      3254 1.00000E-01 5.57442E-01 3.66046E-02
 -1      3255 1.00000E-01 5.39161E-01 6.67528E-02
 -1      3256 1.00000E-01 5.96501E-01 3.66046E-02
 -1      3257 1.00000E-01 6.78826E-01 3.60797E-02
 -1      3258 1.00000E-01 6.38287E-01 3.60797E-02
 -1      3259 1.00000E-01 6.18945E-01 7.26843E-02
 -1      3260 1.00000E-01 7.21794E-01 3.13352E-02
 -1      3261 1.00000E-01 7.03699E-01 6.74149E-02
 -1      3262 1.00000E-01 7.60102E-01 3.13352E-02
 -1      3263 1.00000E-01 7.77733E-01 5.95300E-02
 -1      3264 1.00000E-01 7.91168E-01 2.81948E-02
 -1      3265 1.00000E-01 8.22711E-01 2.81948E-02
 -1      3266 7.58596E-02 8.25265E-01 0.00000E+00
 -1      3267 7.61223E-02 8.54442E-01 0.00000E+00
 -1      3268 7.61223E-02 8.79956E-01 0.00000E+00
 -1      3269 1.00000E-01 8.78673E-01 2.19893E-02
 -1      3270 1.00000E-01 8.53159E-01 2.19893E-02
 -1      3271 1.00000E-01 8.39246E-01 5.01841E-02
 -1      3272 1.00000E-01 8.88315E-01 3.96052E-02
 -1      3273 1.00000E-01 8.97294E-01 1.76159E-02
 -1      3274 8.59819E-02 9.20973E-01 0.00000E+00
 -1      3275 8.59819E-02 9.00228E-01 0.00000E+00
 -1      3276 1.00000E-01 9.18039E-01 1.76159E-02
 -1      3277 6.21042E-02 8.92532E-01 0.00000E+00
 -1      3278 8.32239E-02 9.38491E-01 0.00000E+00
 -1      3279 1.00000E-01 9.54194E-01 1.42894E-02
 -1      3280 1.00000E-01 9.35636E-01 1.42894E-02
 -1      3281 1.00000E-01 9.24532E-01 3.19053E-02
 -1      3282 6.92058E-02 9.30321E-01 0.00000E+00
 -1      3283 1.00000E-01 9.55272E-01 3.70857E-02
 -1      3284 2.51594E-02 8.05986E-01 4.65334E-01
 -1      3285 0.00000E+00 8.09879E-01 4.43931E-01
 -1      3286 0.00000E+00 8.11365E-01 4.17661E-01
 -1      3287 0.00000E+00 7.90229E-01 4.29109E-01
 -1      3288 5.44119E-02 7.96565E-01 4.59895E-01
 -1      3289 2.92525E-02 7.79321E-01 4.49939E-01
 -1      3290 0.00000E+00 7.64614E-01 4.14320E-01
 -1      3291 2.92525E-02 7.53705E-01 4.35150E-01
 -1      3292 5.00000E-02 7.17615E-01 4.14313E-01
 -1      3293 7.92525E-02 7.33809E-01 4.23663E-01
 -1      3294 0.00000E+00 7.64401E-01 3.82812E-01
 -1      3295 0.00000E+00 7.37298E-01 3.94293E-01
 -1      3296 5.00000E-02 6.83183E-01 3.94434E-01
 -1      3297 0.00000E+00 7.02867E-01 3.74414E-01
 -1      3298 0.00000E+00 7.01075E-01 3.35747E-01
 -1      3299 0.00000E+00 6.66856E-01 3.47375E-01
 -1      3300 5.00000E-02 6.48509E-01 3.74415E-01
 -1      3301 0.00000E+00 6.30902E-01 3.26617E-01
 -1      3302 5.00000E-02 6.12554E-01 3.53657E-01
 -1      3303 0.00000E+00 6.27255E-01 2.85687E-01
 -1      3304 0.00000E+00 5.93093E-01 3.03596E-01
 -1      3305 5.00000E-02 5.74342E-01 3.31596E-01
 -1      3306 5.00000E-02 5.36098E-01 3.09516E-01
 -1      3307 0.00000E+00 5.54849E-01 2.81516E-01
 -1      3308 0.00000E+00 4.79843E-01 2.44132E-01
 -1      3309 0.00000E+00 5.16109E-01 2.65070E-01
 -1      3310 5.00000E-02 4.62204E-01 2.66853E-01
 -1      3311 5.00000E-02 4.98470E-01 2.87791E-01
 -1      3312 0.00000E+00 5.50707E-01 2.46219E-01
 -1      3313 5.00000E-02 4.29127E-01 2.47756E-01
 -1      3314 0.00000E+00 4.77551E-01 2.10199E-01
 -1      3315 0.00000E+00 4.45427E-01 2.24558E-01
 -1      3316 0.00000E+00 4.13267E-01 2.05990E-01
 -1      3317 5.00000E-02 3.96967E-01 2.29189E-01
 -1      3318 5.00000E-02 3.41180E-01 1.96980E-01
 -1      3319 5.00000E-02 3.68711E-01 2.12875E-01
 -1      3320 0.00000E+00 3.53235E-01 1.72798E-01
 -1      3321 0.00000E+00 3.80766E-01 1.88693E-01
 -1      3322 0.00000E+00 4.10633E-01 1.73327E-01
 -1      3323 2.83469E-02 2.87543E-01 1.66014E-01
 -1      3324 2.83469E-02 3.11449E-01 1.79815E-01
 -1      3325 0.00000E+00 3.02455E-01 1.47345E-01
 -1      3326 0.00000E+00 3.26361E-01 1.61147E-01
 -1      3327 0.00000E+00 3.51258E-01 1.44379E-01
 -1      3328 7.83469E-02 3.24291E-01 1.87229E-01
 -1      3329 0.00000E+00 3.06226E-01 1.25902E-01
 -1      3330 0.00000E+00 2.84297E-01 1.40519E-01
 -1      3331 2.61735E-02 2.67533E-01 1.54461E-01
 -1      3332 5.45204E-02 2.74550E-01 1.58512E-01
 -1      3333 0.00000E+00 2.65920E-01 1.29909E-01
 -1      3334 2.61735E-02 2.49156E-01 1.43851E-01
 -1      3335 2.18267E-02 2.13501E-01 1.23266E-01
 -1      3336 2.18267E-02 2.31229E-01 1.33501E-01
 -1      3337 0.00000E+00 2.31226E-01 1.12806E-01
 -1      3338 0.00000E+00 2.48954E-01 1.23042E-01