/*--------------------------------*- C++ -*----------------------------------*\
| =========                 |                                                 |
| \\      /  F ield         | OpenFOAM: The Open Source CFD Toolbox           |
|  \\    /   O peration     | Version:  1.7.1                                 |
|   \\  /    A nd           | Web:      www.OpenFOAM.com                      |
|    \\/     M anipulation  |                                                 |
\*---------------------------------------------------------------------------*/
FoamFile
{
    version     2.0;
    format      ascii;
    class       volScalarField;
    location    "0.00199998";
    object      p;
}
// * * * * * * * * * * * * * * * * * * * * * * * * * * * * * * * * * * * * * //

dimensions      [1 -1 -2 0 0 0 0];

internalField   nonuniform List<scalar> 
160
(
224731
213015
197511
182983
170146
158705
148391
139046
130570
122878
115895
109551
103785
98541.8
93771.3
89430.5
85480.8
81887.8
78621.2
75653.6
72960.4
70518.7
68307.4
66308.3
64511.6
62920.8
61544.2
60354.8
59235.8
58177.5
57280.8
56570.3
56047
55715.7
55497.7
55019.5
53632.5
51231
46015.2
37771.9
229290
216500
199827
184469
171136
159413
148931
139481
130933
123192
116173
109802
104016
98755.9
93972.5
89620.8
85661.3
82059
78782.9
75805
73100.4
70645.4
68418
66399.7
64580.3
62965.2
61568.9
60368
59245.5
58188.2
57292.9
56583
56058.3
55722.7
55498.6
55017.2
53635.9
51241.3
46032.7
37797.4
227020
214555
198339
183483
170522
159010
148636
139240
130722
122995
115984
109618
103835
98577.9
93797.4
89449.3
85494.4
81897.8
78628.7
75659.5
72965.3
70523
68311.2
66311.9
64515.2
62924.6
61548.1
60358.6
59239.4
58181.5
57285.4
56575.4
56051.4
55716.6
55493.3
55016.2
53647.6
51263.2
46053.2
37801.9
228442
215261
198545
183508
170494
158985
148640
139281
130798
123101
116113
109764
103991
98741
93963.3
89614.9
85657.2
82055.7
78779.8
75802.1
73097.4
70642.3
68414.9
66396.6
64577.3
62962.5
61566.7
60366.3
59243.8
58186.3
57290.8
56581.2
56057.2
55721.3
55494.5
55015.9
53658.8
51290.4
46144
37979.4
)
;

boundaryField
{
    SYMP3
    {
        type            empty;
    }
    in
    {
        type            cyclic;
        value           nonuniform List<scalar> 
80
(
226586
214138
198028
183245
170320
158845
148515
139164
130684
122989
116004
109657
103888
98641.4
93867.3
89522.7
85569
81971.7
78700.5
75727.8
73028.9
70580.5
68361.2
66352.4
64544.4
62941.6
61555.5
60360.5
59239.8
58181.9
57285.8
56575.8
56052.1
55718.5
55496.1
55017.7
53645.6
51260.7
46079.6
37875.6
226586
214138
198028
183245
170320
158845
148515
139164
130684
122989
116004
109657
103888
98641.4
93867.3
89522.7
85569
81971.7
78700.5
75727.8
73028.9
70580.5
68361.2
66352.4
64544.4
62941.6
61555.5
60360.5
59239.8
58181.9
57285.8
56575.8
56052.1
55718.5
55496.1
55017.7
53645.6
51260.7
46079.6
37875.6
)
;
    }
    wall
    {
        type            fixedValue;
        value           uniform 100000;
    }
    slip
    {
        type            zeroGradient;
    }
}


// ************************************************************************* //
