/*--------------------------------*- C++ -*----------------------------------*\
| =========                 |                                                 |
| \\      /  F ield         | OpenFOAM: The Open Source CFD Toolbox           |
|  \\    /   O peration     | Version:  1.7.1                                 |
|   \\  /    A nd           | Web:      www.OpenFOAM.com                      |
|    \\/     M anipulation  |                                                 |
\*---------------------------------------------------------------------------*/
FoamFile
{
    version     2.0;
    format      ascii;
    class       volScalarField;
    location    "0.00199998";
    object      rho;
}
// * * * * * * * * * * * * * * * * * * * * * * * * * * * * * * * * * * * * * //

dimensions      [1 -3 0 0 0 0 0];

internalField   nonuniform List<scalar> 
160
(
1.40883
1.34067
1.24696
1.15858
1.0807
1.01157
0.949466
0.893374
0.842656
0.796805
0.755365
0.717925
0.684117
0.653616
0.626135
0.601426
0.579269
0.559475
0.541882
0.526347
0.51275
0.500985
0.490957
0.482602
0.47592
0.471022
0.468072
0.466978
0.466949
0.468007
0.471118
0.476712
0.485081
0.496624
0.51106
0.525325
0.533216
0.533162
0.504786
0.441649
1.43238
1.35884
1.25918
1.16652
1.08607
1.01546
0.952472
0.895815
0.84472
0.798606
0.756978
0.7194
0.685488
0.654906
0.627362
0.602598
0.580392
0.560551
0.542907
0.527317
0.513657
0.501814
0.491691
0.483217
0.47639
0.471329
0.468242
0.467068
0.467018
0.468088
0.471214
0.476815
0.485177
0.496685
0.511069
0.525306
0.533255
0.53327
0.504968
0.44194
1.42048
1.34848
1.25113
1.16121
1.08278
1.01331
0.950869
0.894476
0.843508
0.797454
0.755854
0.718289
0.684384
0.65381
0.626275
0.601527
0.579342
0.559529
0.541922
0.526379
0.512777
0.501008
0.490979
0.482623
0.475942
0.471046
0.468096
0.467002
0.466973
0.468035
0.471152
0.47675
0.485116
0.496629
0.511019
0.525297
0.533375
0.533501
0.505192
0.441994
1.4274
1.35185
1.25205
1.16126
1.08261
1.0132
0.950949
0.894789
0.844039
0.798165
0.7567
0.71923
0.685386
0.654847
0.627326
0.602575
0.580374
0.560534
0.54289
0.527299
0.513638
0.501794
0.49167
0.483196
0.476368
0.471309
0.468225
0.467054
0.467004
0.468072
0.471196
0.476799
0.485165
0.496669
0.511028
0.525293
0.533485
0.533779
0.506174
0.444057
)
;

boundaryField
{
    SYMP3
    {
        type            empty;
    }
    in
    {
        type            cyclic;
        value           nonuniform List<scalar> 
80
(
1.41813
1.34626
1.24951
1.15992
1.08166
1.01238
0.950207
0.894082
0.843348
0.797485
0.756033
0.718577
0.684752
0.654231
0.626731
0.602
0.579822
0.560005
0.542386
0.526823
0.513194
0.501389
0.491314
0.482899
0.476144
0.471166
0.468148
0.467016
0.466976
0.46804
0.471157
0.476755
0.485123
0.496646
0.511044
0.525309
0.53335
0.53347
0.50548
0.442853
1.41813
1.34626
1.24951
1.15992
1.08166
1.01238
0.950207
0.894082
0.843348
0.797485
0.756033
0.718577
0.684752
0.654231
0.626731
0.602
0.579822
0.560005
0.542386
0.526823
0.513194
0.501389
0.491314
0.482899
0.476144
0.471166
0.468148
0.467016
0.466976
0.46804
0.471157
0.476755
0.485123
0.496646
0.511044
0.525309
0.53335
0.53347
0.50548
0.442853
)
;
    }
    wall
    {
        type            fixedRho;
        value           uniform 1.20957;
    }
    slip
    {
        type            zeroGradient;
    }
}


// ************************************************************************* //
