/*--------------------------------*- C++ -*----------------------------------*\
| =========                 |                                                 |
| \\      /  F ield         | OpenFOAM: The Open Source CFD Toolbox           |
|  \\    /   O peration     | Version:  1.7.1                                 |
|   \\  /    A nd           | Web:      www.OpenFOAM.com                      |
|    \\/     M anipulation  |                                                 |
\*---------------------------------------------------------------------------*/
FoamFile
{
    version     2.0;
    format      ascii;
    class       volVectorField;
    location    "0.00199998";
    object      U;
}
// * * * * * * * * * * * * * * * * * * * * * * * * * * * * * * * * * * * * * //

dimensions      [0 1 -1 0 0 0 0];

internalField   nonuniform List<vector> 
160
(
(997.83 0 -143.282)
(972.317 0 -143.924)
(950.402 0 -143.138)
(929.064 0 -140.773)
(907.575 0 -137.631)
(885.866 0 -134.25)
(863.967 0 -130.82)
(841.901 0 -127.381)
(819.681 0 -123.935)
(797.316 0 -120.477)
(774.81 0 -117.007)
(752.163 0 -113.523)
(729.373 0 -110.023)
(706.435 0 -106.505)
(683.342 0 -102.968)
(660.086 0 -99.4116)
(636.661 0 -95.8327)
(613.055 0 -92.2304)
(589.258 0 -88.6031)
(565.26 0 -84.9493)
(541.048 0 -81.2672)
(516.609 0 -77.554)
(491.929 0 -73.8044)
(466.993 0 -70.01)
(441.781 0 -66.1623)
(416.27 0 -62.2636)
(390.429 0 -58.3451)
(364.236 0 -54.4698)
(337.728 0 -50.6609)
(310.909 0 -46.7059)
(283.697 0 -42.5965)
(256.054 0 -38.395)
(227.947 0 -34.1629)
(199.335 0 -29.9759)
(170.177 0 -25.9374)
(140.488 0 -21.9805)
(110.354 0 -17.4458)
(79.8032 0 -10.7916)
(48.9754 0 -1.97148)
(20.7273 0 20.9613)
(1007.48 0 -101.999)
(984.643 0 -103.654)
(961.441 0 -103.124)
(938.286 0 -101.033)
(915.375 0 -98.4148)
(892.69 0 -95.7807)
(870.127 0 -93.2259)
(847.594 0 -90.7234)
(825.028 0 -88.2398)
(802.391 0 -85.7572)
(779.658 0 -83.2684)
(756.812 0 -80.7705)
(733.841 0 -78.2622)
(710.732 0 -75.7428)
(687.476 0 -73.2114)
(664.062 0 -70.6672)
(640.478 0 -68.1089)
(616.715 0 -65.5357)
(592.76 0 -62.9462)
(568.601 0 -60.3395)
(544.226 0 -57.7142)
(519.621 0 -55.068)
(494.773 0 -52.396)
(469.667 0 -49.6901)
(444.288 0 -46.9413)
(418.614 0 -44.1507)
(392.616 0 -41.3505)
(366.274 0 -38.6076)
(339.623 0 -35.9465)
(312.655 0 -33.1567)
(285.288 0 -30.2328)
(257.487 0 -27.2377)
(229.221 0 -24.2329)
(200.456 0 -21.2944)
(171.156 0 -18.528)
(141.336 0 -15.859)
(111.053 0 -12.6807)
(80.234 0 -7.38108)
(48.9905 0 0.10569)
(19.4979 0 21.8404)
(1007.55 0 -57.7044)
(982.563 0 -59.9716)
(960.412 0 -60.4354)
(938.768 0 -59.4632)
(917.031 0 -58.0383)
(895.046 0 -56.5775)
(872.825 0 -55.1367)
(850.419 0 -53.697)
(827.86 0 -52.2445)
(805.168 0 -50.7765)
(782.352 0 -49.2947)
(759.412 0 -47.8017)
(736.343 0 -46.2992)
(713.139 0 -44.7883)
(689.792 0 -43.2697)
(666.29 0 -41.7436)
(642.624 0 -40.2099)
(618.781 0 -38.6683)
(594.751 0 -37.1185)
(570.52 0 -35.5601)
(546.076 0 -33.9925)
(521.405 0 -32.4139)
(496.49 0 -30.8202)
(471.317 0 -29.2045)
(445.865 0 -27.5597)
(420.111 0 -25.8903)
(394.026 0 -24.23)
(367.596 0 -22.6437)
(340.859 0 -21.1503)
(313.798 0 -19.5382)
(286.331 0 -17.8072)
(258.426 0 -16.0226)
(230.058 0 -14.2482)
(201.193 0 -12.5614)
(171.803 0 -11.0678)
(141.901 0 -9.68944)
(111.508 0 -7.83148)
(80.4828 0 -3.88696)
(48.9214 0 2.23892)
(18.4993 0 22.6696)
(1012.11 0 -14.6009)
(988.173 0 -17.0752)
(965.298 0 -18.3721)
(942.668 0 -18.4746)
(920.074 0 -18.0969)
(897.491 0 -17.6191)
(874.891 0 -17.1327)
(852.251 0 -16.6478)
(829.557 0 -16.1622)
(806.787 0 -15.6753)
(783.923 0 -15.187)
(760.949 0 -14.6977)
(737.85 0 -14.2073)
(714.614 0 -13.7158)
(691.229 0 -13.223)
(667.684 0 -12.7289)
(643.969 0 -12.2335)
(620.072 0 -11.7371)
(595.982 0 -11.2398)
(571.688 0 -10.742)
(547.177 0 -10.2438)
(522.435 0 -9.74421)
(497.449 0 -9.23982)
(472.203 0 -8.72375)
(446.681 0 -8.18852)
(420.861 0 -7.63716)
(394.717 0 -7.1048)
(368.236 0 -6.66001)
(341.457 0 -6.32325)
(314.349 0 -5.88498)
(286.831 0 -5.34744)
(258.874 0 -4.77625)
(230.454 0 -4.23594)
(201.543 0 -3.80518)
(172.118 0 -3.58854)
(142.185 0 -3.50142)
(111.739 0 -2.94848)
(80.5415 0 -0.326373)
(48.6626 0 4.44209)
(17.1029 0 23.4349)
)
;

boundaryField
{
    SYMP3
    {
        type            empty;
    }
    in
    {
        type            cyclic;
        value           nonuniform List<vector> 
80
(
(1009.84 -8.35713e-16 8.44582)
(985.364 -8.14656e-16 4.68576)
(963.066 -7.96473e-16 2.52913)
(941.039 -7.78652e-16 1.79658)
(918.887 -7.60651e-16 1.67444)
(896.613 -7.42451e-16 1.70027)
(874.231 -7.2409e-16 1.73846)
(851.747 -7.0559e-16 1.76596)
(829.16 -6.86962e-16 1.78415)
(806.462 -6.68214e-16 1.79576)
(783.647 -6.49347e-16 1.80213)
(760.706 -6.30364e-16 1.80394)
(737.63 -6.1126e-16 1.80165)
(714.411 -5.92032e-16 1.79565)
(691.04 -5.72676e-16 1.78622)
(667.508 -5.53183e-16 1.77348)
(643.804 -5.33548e-16 1.75741)
(619.919 -5.13762e-16 1.73786)
(595.842 -4.93817e-16 1.71453)
(571.561 -4.73703e-16 1.68705)
(547.063 -4.5341e-16 1.65521)
(522.336 -4.32927e-16 1.61977)
(497.364 -4.12242e-16 1.58381)
(472.133 -3.91341e-16 1.55355)
(446.623 -3.70209e-16 1.53534)
(420.813 -3.48826e-16 1.5244)
(394.676 -3.27168e-16 1.48519)
(368.202 -3.05222e-16 1.35044)
(341.428 -2.83021e-16 1.1018)
(314.325 -2.60551e-16 0.948895)
(286.81 -2.37745e-16 0.887689)
(258.855 -2.14576e-16 0.851308)
(230.437 -1.91021e-16 0.774474)
(201.529 -1.67052e-16 0.577033)
(172.108 -1.42641e-16 0.152147)
(142.179 -1.17797e-16 -0.423691)
(111.723 -9.25429e-17 -0.520513)
(80.5042 -6.67917e-17 1.425)
(48.6204 -4.06549e-17 5.48633)
(16.9458 -1.56346e-17 23.8329)
(996.076 8.36014e-16 -166.37)
(971.319 8.16042e-16 -165.84)
(948.985 7.97029e-16 -164.107)
(927.162 7.78304e-16 -161.018)
(905.324 7.59645e-16 -157.306)
(883.39 7.41001e-16 -153.427)
(861.352 7.22344e-16 -149.518)
(839.212 7.03654e-16 -145.602)
(816.968 6.84919e-16 -141.676)
(794.615 6.66122e-16 -137.738)
(772.144 6.47247e-16 -133.785)
(749.549 6.28281e-16 -129.815)
(726.821 6.09212e-16 -125.826)
(703.952 5.9003e-16 -121.815)
(680.931 5.70724e-16 -117.781)
(657.751 5.51287e-16 -113.723)
(634.402 5.31708e-16 -109.639)
(610.874 5.1198e-16 -105.526)
(587.156 4.92092e-16 -101.384)
(563.236 4.72035e-16 -97.2108)
(539.102 4.51799e-16 -93.0044)
(514.741 4.31372e-16 -88.7618)
(490.14 4.10744e-16 -84.4775)
(465.284 3.89901e-16 -80.1426)
(440.156 3.68831e-16 -75.7477)
(414.732 3.47517e-16 -71.2936)
(388.983 3.25933e-16 -66.8109)
(362.884 3.04064e-16 -62.3639)
(336.472 2.81941e-16 -57.9774)
(309.751 2.59553e-16 -53.4395)
(282.64 2.36834e-16 -48.74)
(255.1 2.13753e-16 -43.94)
(227.097 1.90288e-16 -39.0998)
(198.591 1.66408e-16 -34.2936)
(169.54 1.42088e-16 -29.6226)
(139.962 1.17339e-16 -25.0123)
(109.949 9.21988e-17 -19.8393)
(79.537 6.65865e-17 -12.5226)
(48.8364 4.05655e-17 -3.00706)
(20.8131 1.58336e-17 20.5422)
)
;
    }
    wall
    {
        type            fixedValue;
        value           uniform (0 0 0);
    }
    slip
    {
        type            fixedValue;
        value           nonuniform List<vector> 4((1010.17 22.7168 -150.891) (1015.36 22.7009 -108.918) (1019.54 22.6811 -64.661) (1022.2 22.648 -22.8795));
    }
}


// ************************************************************************* //
