/*--------------------------------*- C++ -*----------------------------------*\
| =========                 |                                                 |
| \\      /  F ield         | OpenFOAM: The Open Source CFD Toolbox           |
|  \\    /   O peration     | Version:  1.7.1                                 |
|   \\  /    A nd           | Web:      www.OpenFOAM.com                      |
|    \\/     M anipulation  |                                                 |
\*---------------------------------------------------------------------------*/
FoamFile
{
    version     2.0;
    format      ascii;
    class       volScalarField;
    location    "0.00399998";
    object      p;
}
// * * * * * * * * * * * * * * * * * * * * * * * * * * * * * * * * * * * * * //

dimensions      [1 -1 -2 0 0 0 0];

internalField   nonuniform List<scalar> 
160
(
124616
119172
110595
102051
94510.4
87912.5
82045.2
76760.7
71975
67634.6
63697.2
60124.6
56881.9
53937.3
51262.3
48831.8
46623.3
44617.1
42795.3
41142.1
39642.7
38283.9
37053.9
35944.4
34952.2
34079.7
33327.8
32678
32075.4
31505.1
31022.7
30664.1
30385.7
30032.7
29392.8
28418.5
26612.1
22672.8
16448.7
11158.9
126637
120788
111670
102730
94958.4
88236.2
82298.6
76971.9
72159.7
67802
63852.5
60270.9
57021
54070.1
51389.6
48953.8
46740.1
44728.5
42901
41241.3
39734.5
38366.6
37125.6
36002.6
34994.9
34106.5
33342
32685.2
32080.4
31510.6
31028.8
30670.2
30389.8
30031.6
29386.5
28410.3
26603.7
22645.6
16368.5
11013.3
125242
119599
110773
102097
94518.9
87916.2
82048.6
76763.8
71978.1
67638
63700.7
60128.1
56885.2
53940.4
51265.3
48834.6
46625.9
44619.5
42797.7
41144.3
39644.9
38285.9
37055.9
35946.3
34954.1
34081.8
33330
32680.2
32077.5
31507.2
31024.8
30665.7
30386.2
30031.1
29392.6
28422.8
26632.2
22701.9
16425.1
11033.9
126682
120720
111527
102616
94892.3
88198.4
82275
76956.5
72149.4
67794.7
63846.9
60266.3
57017
54066.6
51386.4
48950.9
46737.4
44726
42898.6
41239.1
39732.4
38364.7
37123.7
36000.8
34993.2
34105
33340.7
32684.2
32079.5
31509.5
31027.7
30669
30389.1
30033.5
29396.1
28427.5
26643.8
22758.4
16589.2
11275.8
)
;

boundaryField
{
    SYMP3
    {
        type            empty;
    }
    in
    {
        type            cyclic;
        value           nonuniform List<scalar> 
80
(
125649
119946
111061
102334
94701.3
88055.4
82160.1
76858.6
72062.2
67714.6
63772
60195.5
56949.4
54001.9
51324.4
48891.3
46680.4
44671.5
42847
41190.6
39687.6
38324.3
37088.8
35972.6
34972.7
34092.3
33334.3
32681.1
32077.4
31507.3
31025.2
30666.6
30387.4
30033.1
29394.4
28423
26627.9
22715.6
16519
11217.4
125649
119946
111061
102334
94701.3
88055.4
82160.1
76858.6
72062.2
67714.6
63772
60195.5
56949.4
54001.9
51324.4
48891.3
46680.4
44671.5
42847
41190.6
39687.6
38324.3
37088.8
35972.6
34972.7
34092.3
33334.3
32681.1
32077.4
31507.3
31025.2
30666.6
30387.4
30033.1
29394.4
28423
26627.9
22715.6
16519
11217.4
)
;
    }
    wall
    {
        type            fixedValue;
        value           uniform 100000;
    }
    slip
    {
        type            zeroGradient;
    }
}


// ************************************************************************* //
