/*--------------------------------*- C++ -*----------------------------------*\
| =========                 |                                                 |
| \\      /  F ield         | OpenFOAM: The Open Source CFD Toolbox           |
|  \\    /   O peration     | Version:  1.7.1                                 |
|   \\  /    A nd           | Web:      www.OpenFOAM.com                      |
|    \\/     M anipulation  |                                                 |
\*---------------------------------------------------------------------------*/
FoamFile
{
    version     2.0;
    format      ascii;
    class       volScalarField;
    location    "0.00399998";
    object      rho;
}
// * * * * * * * * * * * * * * * * * * * * * * * * * * * * * * * * * * * * * //

dimensions      [1 -3 0 0 0 0 0];

internalField   nonuniform List<scalar> 
160
(
0.797131
0.764533
0.711458
0.658243
0.611346
0.570461
0.534229
0.501696
0.472325
0.445778
0.421795
0.400142
0.380607
0.362996
0.34714
0.332889
0.320113
0.308698
0.298546
0.28957
0.281693
0.274849
0.268986
0.264076
0.260136
0.257229
0.255416
0.254619
0.254475
0.25492
0.256482
0.259581
0.264005
0.268547
0.271342
0.271846
0.264963
0.23625
0.180623
0.13053
0.808102
0.773313
0.717339
0.661987
0.613857
0.572311
0.535708
0.502954
0.473444
0.446807
0.422761
0.401061
0.381486
0.363842
0.347956
0.333677
0.320872
0.309428
0.299244
0.290231
0.282311
0.275413
0.269481
0.264484
0.260439
0.257422
0.255519
0.254672
0.254513
0.254963
0.256532
0.259632
0.264041
0.268539
0.271289
0.271771
0.264881
0.235957
0.179713
0.128824
0.800428
0.766743
0.712271
0.658354
0.611306
0.570439
0.534229
0.501707
0.47234
0.445798
0.421817
0.400164
0.380627
0.363015
0.347158
0.332906
0.320129
0.308713
0.29856
0.289583
0.281706
0.274862
0.268999
0.264089
0.260149
0.257243
0.255432
0.254635
0.254491
0.254936
0.256499
0.259595
0.264011
0.268538
0.271349
0.271898
0.265169
0.236543
0.18033
0.129067
0.808069
0.77273
0.716422
0.661317
0.613498
0.572122
0.535594
0.502879
0.473393
0.446769
0.42273
0.401034
0.381462
0.36382
0.347936
0.333658
0.320855
0.309411
0.299228
0.290216
0.282296
0.275399
0.269467
0.264471
0.260426
0.25741
0.255509
0.254664
0.254505
0.254954
0.256523
0.259622
0.264036
0.26856
0.271384
0.271946
0.265285
0.237123
0.182103
0.131891
)
;

boundaryField
{
    SYMP3
    {
        type            empty;
    }
    in
    {
        type            cyclic;
        value           nonuniform List<scalar> 
80
(
0.802607
0.768636
0.713941
0.659781
0.612422
0.571291
0.534911
0.502288
0.472859
0.446274
0.422263
0.400588
0.381034
0.363408
0.347538
0.333273
0.320484
0.309055
0.298887
0.289893
0.281995
0.275124
0.269227
0.264274
0.260281
0.257319
0.255462
0.254642
0.25449
0.254937
0.256502
0.259602
0.264021
0.268554
0.271363
0.271896
0.265124
0.236687
0.181363
0.13121
0.802607
0.768636
0.713941
0.659781
0.612422
0.571291
0.534911
0.502288
0.472859
0.446274
0.422263
0.400588
0.381034
0.363408
0.347538
0.333273
0.320484
0.309055
0.298887
0.289893
0.281995
0.275124
0.269227
0.264274
0.260281
0.257319
0.255462
0.254642
0.25449
0.254937
0.256502
0.259602
0.264021
0.268554
0.271363
0.271896
0.265124
0.236687
0.181363
0.13121
)
;
    }
    wall
    {
        type            fixedRho;
        value           uniform 1.20957;
    }
    slip
    {
        type            zeroGradient;
    }
}


// ************************************************************************* //
