/*--------------------------------*- C++ -*----------------------------------*\
| =========                 |                                                 |
| \\      /  F ield         | OpenFOAM: The Open Source CFD Toolbox           |
|  \\    /   O peration     | Version:  1.7.1                                 |
|   \\  /    A nd           | Web:      www.OpenFOAM.com                      |
|    \\/     M anipulation  |                                                 |
\*---------------------------------------------------------------------------*/
FoamFile
{
    version     2.0;
    format      ascii;
    class       volScalarField;
    location    "0.00100001";
    object      p;
}
// * * * * * * * * * * * * * * * * * * * * * * * * * * * * * * * * * * * * * //

dimensions      [1 -1 -2 0 0 0 0];

internalField   nonuniform List<scalar> 
160
(
299308
283076
263355
245125
228878
214249
200976
188905
177923
167928
158827
150535
142977
136086
129800
124066
118836
114067
109721
105765
102166
98897.4
95932.3
93249.7
90840
88706.8
86841.1
85156.4
83589.2
82200.5
81033.7
80064.1
79269.9
78662
78278.9
78095.4
77732.8
76169.4
72633.6
65619.5
305615
287544
266105
246781
229934
214982
201525
189341
178286
168242
159107
150793
143219
136315
130019
124277
119039
114262
109907
105939
102328
99043.2
96059
93353.2
90916.1
88754.1
86868.2
85175.2
83606.8
82218.2
81052
80083.3
79289.9
78682.7
78299.5
78114.3
77748.2
76180.9
72647
65649.1
303829
286262
265411
246564
229940
215039
201564
189343
178245
168162
158994
150653
143058
136140
129836
124089
118851
114076
109728
105770
102170
98901.4
95936.3
93253.9
90844.4
88711.5
86845.9
85161.2
83594.1
82206
81039.9
80071.1
79277.8
78670.7
78288
78104.5
77744.4
76189
72663.4
65655.2
305251
286777
265439
246471
229856
215000
201574
189401
178349
168305
159167
150846
143264
136353
130049
124299
119054
114271
109912
105941
102327
99041.2
96056
93349.7
90912.4
88750.8
86865.3
85172.5
83604.1
82215.4
81049.2
80080.5
79287.2
78680
78296.3
78111.5
77753.8
76211.4
72700.8
65739.7
)
;

boundaryField
{
    SYMP3
    {
        type            empty;
    }
    in
    {
        type            cyclic;
        value           nonuniform List<scalar> 
80
(
302279
284926
264397
245798
229367
214624
201275
189153
178136
168116
158997
150690
143121
136219
129924
124182
118945
114169
109816
105853
102247
98969.3
95994.1
93299.7
90876.2
88728.8
86853.2
85164.5
83596.7
82208
81041.4
80072.3
79278.6
78671
78287.6
78103.4
77743.3
76190.4
72667.2
65679.6
302279
284926
264397
245798
229367
214624
201275
189153
178136
168116
158997
150690
143121
136219
129924
124182
118945
114169
109816
105853
102247
98969.3
95994.1
93299.7
90876.2
88728.8
86853.2
85164.5
83596.7
82208
81041.4
80072.3
79278.6
78671
78287.6
78103.4
77743.3
76190.4
72667.2
65679.6
)
;
    }
    wall
    {
        type            fixedValue;
        value           uniform 100000;
    }
    slip
    {
        type            zeroGradient;
    }
}


// ************************************************************************* //
