/*--------------------------------*- C++ -*----------------------------------*\
| =========                 |                                                 |
| \\      /  F ield         | OpenFOAM: The Open Source CFD Toolbox           |
|  \\    /   O peration     | Version:  1.7.1                                 |
|   \\  /    A nd           | Web:      www.OpenFOAM.com                      |
|    \\/     M anipulation  |                                                 |
\*---------------------------------------------------------------------------*/
FoamFile
{
    version     2.0;
    format      ascii;
    class       volScalarField;
    location    "0.00100001";
    object      rho;
}
// * * * * * * * * * * * * * * * * * * * * * * * * * * * * * * * * * * * * * //

dimensions      [1 -3 0 0 0 0 0];

internalField   nonuniform List<scalar> 
160
(
1.79955
1.70976
1.59601
1.49026
1.39636
1.31222
1.23621
1.16738
1.10504
1.04859
0.997491
0.951272
0.909498
0.871788
0.837808
0.807264
0.779901
0.755497
0.733862
0.714836
0.698279
0.684075
0.672127
0.662381
0.654873
0.649754
0.647101
0.646418
0.64736
0.650585
0.656695
0.665811
0.678126
0.694196
0.714958
0.740957
0.769425
0.790591
0.795701
0.766314
1.83009
1.73168
1.60942
1.49818
1.40128
1.31558
1.23874
1.16943
1.1068
1.05017
0.998966
0.952674
0.910848
0.8731
0.839087
0.808512
0.781115
0.756673
0.734992
0.715908
0.699281
0.68499
0.672932
0.663047
0.655368
0.650063
0.647277
0.646541
0.647484
0.650716
0.656837
0.665965
0.678292
0.694374
0.715143
0.741136
0.769579
0.790713
0.795843
0.766652
1.82098
1.72492
1.60569
1.49704
1.40142
1.31602
1.23903
1.16944
1.10652
1.04965
0.998254
0.951809
0.909869
0.872039
0.837973
0.80737
0.779968
0.75554
0.733892
0.714858
0.698299
0.684094
0.672147
0.662402
0.654897
0.649781
0.64713
0.646446
0.64739
0.650621
0.656738
0.665862
0.678186
0.694266
0.715035
0.741042
0.769542
0.790794
0.796021
0.766724
1.82764
1.72731
1.60601
1.49697
1.40141
1.31618
1.23942
1.17007
1.10738
1.05068
0.999406
0.95304
0.911144
0.87333
0.83926
0.808635
0.781196
0.756721
0.735015
0.715913
0.699273
0.684973
0.672911
0.663023
0.655343
0.650039
0.647256
0.646521
0.647463
0.650693
0.656813
0.66594
0.678267
0.694347
0.71511
0.741105
0.76963
0.791019
0.796425
0.767699
)
;

boundaryField
{
    SYMP3
    {
        type            empty;
    }
    in
    {
        type            cyclic;
        value           nonuniform List<scalar> 
80
(
1.81362
1.71855
1.60101
1.49362
1.39889
1.3142
1.23781
1.16873
1.10621
1.04963
0.998448
0.952156
0.910321
0.872559
0.838534
0.807949
0.780549
0.756109
0.734439
0.715374
0.698776
0.684524
0.672519
0.662702
0.655108
0.649897
0.647178
0.646469
0.647412
0.650639
0.656754
0.665876
0.678197
0.694271
0.715034
0.741031
0.769528
0.790805
0.796063
0.767006
1.81362
1.71855
1.60101
1.49362
1.39889
1.3142
1.23781
1.16873
1.10621
1.04963
0.998448
0.952156
0.910321
0.872559
0.838534
0.807949
0.780549
0.756109
0.734439
0.715374
0.698776
0.684524
0.672519
0.662702
0.655108
0.649897
0.647178
0.646469
0.647412
0.650639
0.656754
0.665876
0.678197
0.694271
0.715034
0.741031
0.769528
0.790805
0.796063
0.767006
)
;
    }
    wall
    {
        type            fixedRho;
        value           uniform 1.20957;
    }
    slip
    {
        type            zeroGradient;
    }
}


// ************************************************************************* //
